
Host: warthog

Timers On : Thu Nov 16 16:27:38 2017
Timers Off: Thu Nov 16 16:27:38 2017

Wall Time:        0.00 seconds


***********************************************************
