 Entering Gaussian System, Link 0=g09
 Input=1540441.gjf
 Output=1540441.log
 Initial command:
 /opt/gaussian/g09/l1.exe "/home/davids4/projects/synthetic-motors/gaussian-torsion-scan-excited-HF-631Gdp/Gau-11301.inp" -scrdir="/home/davids4/projects/synthetic-motors/gaussian-torsion-scan-excited-HF-631Gdp/"
 Entering Link 1 = /opt/gaussian/g09/l1.exe PID=     11302.
  
 Copyright (c) 1988,1990,1992,1993,1995,1998,2003,2009,2013,
            Gaussian, Inc.  All Rights Reserved.
  
 This is part of the Gaussian(R) 09 program.  It is based on
 the Gaussian(R) 03 system (copyright 2003, Gaussian, Inc.),
 the Gaussian(R) 98 system (copyright 1998, Gaussian, Inc.),
 the Gaussian(R) 94 system (copyright 1995, Gaussian, Inc.),
 the Gaussian 92(TM) system (copyright 1992, Gaussian, Inc.),
 the Gaussian 90(TM) system (copyright 1990, Gaussian, Inc.),
 the Gaussian 88(TM) system (copyright 1988, Gaussian, Inc.),
 the Gaussian 86(TM) system (copyright 1986, Carnegie Mellon
 University), and the Gaussian 82(TM) system (copyright 1983,
 Carnegie Mellon University). Gaussian is a federally registered
 trademark of Gaussian, Inc.
  
 This software contains proprietary and confidential information,
 including trade secrets, belonging to Gaussian, Inc.
  
 This software is provided under written license and may be
 used, copied, transmitted, or stored only in accord with that
 written license.
  
 The following legend is applicable only to US Government
 contracts under FAR:
  
                    RESTRICTED RIGHTS LEGEND
  
 Use, reproduction and disclosure by the US Government is
 subject to restrictions as set forth in subparagraphs (a)
 and (c) of the Commercial Computer Software - Restricted
 Rights clause in FAR 52.227-19.
  
 Gaussian, Inc.
 340 Quinnipiac St., Bldg. 40, Wallingford CT 06492
  
  
 ---------------------------------------------------------------
 Warning -- This program may not be used in any manner that
 competes with the business of Gaussian, Inc. or will provide
 assistance to any competitor of Gaussian, Inc.  The licensee
 of this program is prohibited from giving any competitor of
 Gaussian, Inc. access to this program.  By using this program,
 the user acknowledges that Gaussian, Inc. is engaged in the
 business of creating and licensing software in the field of
 computational chemistry and represents and warrants to the
 licensee that it is not a competitor of Gaussian, Inc. and that
 it will not use this program in any manner prohibited above.
 ---------------------------------------------------------------
  

 Cite this work as:
 Gaussian 09, Revision D.01,
 M. J. Frisch, G. W. Trucks, H. B. Schlegel, G. E. Scuseria, 
 M. A. Robb, J. R. Cheeseman, G. Scalmani, V. Barone, B. Mennucci, 
 G. A. Petersson, H. Nakatsuji, M. Caricato, X. Li, H. P. Hratchian, 
 A. F. Izmaylov, J. Bloino, G. Zheng, J. L. Sonnenberg, M. Hada, 
 M. Ehara, K. Toyota, R. Fukuda, J. Hasegawa, M. Ishida, T. Nakajima, 
 Y. Honda, O. Kitao, H. Nakai, T. Vreven, J. A. Montgomery, Jr., 
 J. E. Peralta, F. Ogliaro, M. Bearpark, J. J. Heyd, E. Brothers, 
 K. N. Kudin, V. N. Staroverov, T. Keith, R. Kobayashi, J. Normand, 
 K. Raghavachari, A. Rendell, J. C. Burant, S. S. Iyengar, J. Tomasi, 
 M. Cossi, N. Rega, J. M. Millam, M. Klene, J. E. Knox, J. B. Cross, 
 V. Bakken, C. Adamo, J. Jaramillo, R. Gomperts, R. E. Stratmann, 
 O. Yazyev, A. J. Austin, R. Cammi, C. Pomelli, J. W. Ochterski, 
 R. L. Martin, K. Morokuma, V. G. Zakrzewski, G. A. Voth, 
 P. Salvador, J. J. Dannenberg, S. Dapprich, A. D. Daniels, 
 O. Farkas, J. B. Foresman, J. V. Ortiz, J. Cioslowski, 
 and D. J. Fox, Gaussian, Inc., Wallingford CT, 2013.
 
 ******************************************
 Gaussian 09:  EM64L-G09RevD.01 24-Apr-2013
                29-Nov-2017 
 ******************************************
 %rwf=/oasis/tscc/scratch/davids4/excited-state-torsion-scan
 %int=/oasis/tscc/scratch/davids4/excited-state-torsion-scan
 %d2e=/oasis/tscc/scratch/davids4/excited-state-torsion-scan
 %nproc=16
 Will use up to   16 processors via shared memory.
 %mem=8GB
 %chk=1540441.chk
 --------------------------------------------------------------
 # opt=modredundant hf/6-31g(d,p) geom=connectivity cis(root=1)
 --------------------------------------------------------------
 1/18=120,19=15,38=1,57=2/1,3;
 2/9=110,12=2,17=6,18=5,40=1/2;
 3/5=1,6=6,7=101,11=9,16=1,25=1,30=1,71=1/1,2,8,3;
 4//1;
 5/5=2,38=5/2;
 8/6=1,10=2,107=1/1,4;
 9/8=1,15=2,42=3/14;
 10/5=4/2;
 6/7=2,8=2,9=2,10=2/1;
 7/12=6,13=5,14=1/1,2,3,16;
 1/18=20,19=15/3(2);
 2/9=110/2;
 99//99;
 2/9=110/2;
 3/5=1,6=6,7=101,11=9,16=1,25=1,30=1,71=1/1,2,8,3;
 4/5=5,16=3,69=1/1;
 5/5=2,38=5/2;
 8/6=1,10=2,107=1/1,4;
 9/8=1,15=2,42=3,49=4/14;
 10/5=4/2;
 7/12=6,13=5,14=1/1,2,3,16;
 1/18=20,19=15/3(-8);
 2/9=110/2;
 6/7=2,8=2,9=2,10=2/1;
 99//99;
 ----------------------------------------------------------------------
 Excited state torsion scan of Feringa's second generation motor using 
 HF/6-31G(d,p)
 ----------------------------------------------------------------------
 Symbolic Z-matrix:
 Charge =  0 Multiplicity = 1
 O                    -0.0905    5.5166    12.3212 
 C                     0.2148    3.5148    10.5539 
 C                     1.2528    4.5034    7.6327 
 C                     0.4429    5.9274    11.1286 
 C                     1.754     3.2686    7.3766 
 C                    -0.8252    2.9396    9.8619 
 H                    -1.2025    3.3992    9.1219 
 C                     1.7183    2.5437    6.0696 
 C                     3.0507    2.6072    9.5438 
 H                     2.9013    3.4342    9.9869 
 C                     1.0732    7.6244    9.5385 
 H                     1.2275    8.5364    9.3209 
 C                     0.6509    4.8945    10.1848 
 C                     0.788     2.815     11.668 
 C                     3.5773    0.1811    8.2153 
 H                     3.7557   -0.6352    7.7635 
 C                     0.7031    7.2626    10.8309 
 H                     0.6286    7.9245    11.5072 
 C                     2.8346    1.1819    7.604 
 C                     0.8725    5.4878    6.5329 
 H                     1.3338    5.2571    5.6753 
 C                     1.0804    5.2753    8.8983 
 C                     1.2127    6.6449    8.578 
 C                     2.5109    2.3759    8.2838 
 C                     4.0543    0.399     9.5019 
 H                     4.5471   -0.2825    9.9444 
 C                     1.8496    3.3486    12.4438 
 H                     2.1861    4.2127    12.2395 
 C                    -1.3425    1.6789    10.2326 
 H                    -2.0752    1.3104    9.7534 
 C                     1.2485    1.9192    3.787 
 H                     0.8622    2.1258    2.9451 
 C                     2.3548    1.2902    6.2299 
 C                     0.2861    1.5272    12.0084 
 C                    -0.6476    5.5052    6.3445 
 H                    -0.892     6.2245    5.7258 
 H                    -1.082     5.6575    7.2089 
 H                    -0.9413    4.6452    5.9778 
 C                     1.4014    6.8266    7.0972 
 H                     2.3554    6.961     6.8693 
 H                     0.874     7.5933    6.7579 
 C                     1.1295    2.8321    4.8348 
 H                     0.6522    3.6437    4.7095 
 C                     1.9218    0.7111    3.951 
 H                     2.0076    0.113     3.2184 
 C                     3.8137    1.6101    10.1487 
 H                     4.1751    1.7585    11.0137 
 C                     2.4674    0.3804    5.1847 
 H                     2.9087   -0.4511    5.3118 
 C                     0.8829    0.8211    13.0952 
 H                     0.5519   -0.038     13.33 
 C                     1.9174    1.355     13.8002 
 H                     2.315     0.8603    14.5081 
 C                    -0.7959    0.9854    11.2759 
 H                    -1.1452    0.1335    11.5099 
 C                    -0.4216    6.5116    13.2838 
 H                    -1.0388    7.1598    12.8843 
 H                     0.3939    6.9717    13.5715 
 H                    -0.848     6.0881    14.057 
 C                     2.3993    2.643     13.4812 
 H                     3.1079    3.0221    13.988 
 
 The following ModRedundant input section has been read:
 D      22       3       5      24 S  35 10.000                                
 

 GradGradGradGradGradGradGradGradGradGradGradGradGradGradGradGradGradGrad
 Berny optimization.
 Initialization pass.
                           ----------------------------
                           !    Initial Parameters    !
                           ! (Angstroms and Degrees)  !
 --------------------------                            --------------------------
 ! Name  Definition              Value          Derivative Info.                !
 --------------------------------------------------------------------------------
 ! R1    R(1,4)                  1.3695         estimate D2E/DX2                !
 ! R2    R(1,56)                 1.4235         estimate D2E/DX2                !
 ! R3    R(2,6)                  1.3753         estimate D2E/DX2                !
 ! R4    R(2,13)                 1.4933         estimate D2E/DX2                !
 ! R5    R(2,14)                 1.4351         estimate D2E/DX2                !
 ! R6    R(3,5)                  1.357          estimate D2E/DX2                !
 ! R7    R(3,20)                 1.5242         estimate D2E/DX2                !
 ! R8    R(3,22)                 1.4924         estimate D2E/DX2                !
 ! R9    R(4,13)                 1.4145         estimate D2E/DX2                !
 ! R10   R(4,17)                 1.3925         estimate D2E/DX2                !
 ! R11   R(5,8)                  1.495          estimate D2E/DX2                !
 ! R12   R(5,24)                 1.4808         estimate D2E/DX2                !
 ! R13   R(6,7)                  0.9493         estimate D2E/DX2                !
 ! R14   R(6,29)                 1.4122         estimate D2E/DX2                !
 ! R15   R(8,33)                 1.415          estimate D2E/DX2                !
 ! R16   R(8,42)                 1.3981         estimate D2E/DX2                !
 ! R17   R(9,10)                 0.95           estimate D2E/DX2                !
 ! R18   R(9,24)                 1.3901         estimate D2E/DX2                !
 ! R19   R(9,46)                 1.3937         estimate D2E/DX2                !
 ! R20   R(11,12)                0.9502         estimate D2E/DX2                !
 ! R21   R(11,17)                1.3922         estimate D2E/DX2                !
 ! R22   R(11,23)                1.3789         estimate D2E/DX2                !
 ! R23   R(13,22)                1.4087         estimate D2E/DX2                !
 ! R24   R(14,27)                1.419          estimate D2E/DX2                !
 ! R25   R(14,34)                1.4234         estimate D2E/DX2                !
 ! R26   R(15,16)                0.9499         estimate D2E/DX2                !
 ! R27   R(15,19)                1.3881         estimate D2E/DX2                !
 ! R28   R(15,25)                1.3894         estimate D2E/DX2                !
 ! R29   R(17,18)                0.9492         estimate D2E/DX2                !
 ! R30   R(19,24)                1.4116         estimate D2E/DX2                !
 ! R31   R(19,33)                1.4595         estimate D2E/DX2                !
 ! R32   R(20,21)                1.0007         estimate D2E/DX2                !
 ! R33   R(20,35)                1.5318         estimate D2E/DX2                !
 ! R34   R(20,39)                1.5461         estimate D2E/DX2                !
 ! R35   R(22,23)                1.4128         estimate D2E/DX2                !
 ! R36   R(23,39)                1.5038         estimate D2E/DX2                !
 ! R37   R(25,26)                0.9503         estimate D2E/DX2                !
 ! R38   R(25,46)                1.3939         estimate D2E/DX2                !
 ! R39   R(27,28)                0.9495         estimate D2E/DX2                !
 ! R40   R(27,60)                1.3698         estimate D2E/DX2                !
 ! R41   R(29,30)                0.9499         estimate D2E/DX2                !
 ! R42   R(29,54)                1.3668         estimate D2E/DX2                !
 ! R43   R(31,32)                0.9491         estimate D2E/DX2                !
 ! R44   R(31,42)                1.3948         estimate D2E/DX2                !
 ! R45   R(31,44)                1.3927         estimate D2E/DX2                !
 ! R46   R(33,48)                1.3903         estimate D2E/DX2                !
 ! R47   R(34,50)                1.4268         estimate D2E/DX2                !
 ! R48   R(34,54)                1.4145         estimate D2E/DX2                !
 ! R49   R(35,36)                0.9798         estimate D2E/DX2                !
 ! R50   R(35,37)                0.9793         estimate D2E/DX2                !
 ! R51   R(35,38)                0.98           estimate D2E/DX2                !
 ! R52   R(39,40)                0.99           estimate D2E/DX2                !
 ! R53   R(39,41)                0.9905         estimate D2E/DX2                !
 ! R54   R(42,43)                0.9498         estimate D2E/DX2                !
 ! R55   R(44,45)                0.9496         estimate D2E/DX2                !
 ! R56   R(44,48)                1.3889         estimate D2E/DX2                !
 ! R57   R(46,47)                0.9491         estimate D2E/DX2                !
 ! R58   R(48,49)                0.9499         estimate D2E/DX2                !
 ! R59   R(50,51)                0.9501         estimate D2E/DX2                !
 ! R60   R(50,52)                1.361          estimate D2E/DX2                !
 ! R61   R(52,53)                0.9508         estimate D2E/DX2                !
 ! R62   R(52,60)                1.4117         estimate D2E/DX2                !
 ! R63   R(54,55)                0.95           estimate D2E/DX2                !
 ! R64   R(56,57)                0.9802         estimate D2E/DX2                !
 ! R65   R(56,58)                0.9795         estimate D2E/DX2                !
 ! R66   R(56,59)                0.9793         estimate D2E/DX2                !
 ! R67   R(60,61)                0.9501         estimate D2E/DX2                !
 ! A1    A(4,1,56)             118.0215         estimate D2E/DX2                !
 ! A2    A(6,2,13)             118.8752         estimate D2E/DX2                !
 ! A3    A(6,2,14)             119.2569         estimate D2E/DX2                !
 ! A4    A(13,2,14)            121.7203         estimate D2E/DX2                !
 ! A5    A(5,3,20)             122.9324         estimate D2E/DX2                !
 ! A6    A(5,3,22)             132.3251         estimate D2E/DX2                !
 ! A7    A(20,3,22)            104.4202         estimate D2E/DX2                !
 ! A8    A(1,4,13)             114.7881         estimate D2E/DX2                !
 ! A9    A(1,4,17)             123.1315         estimate D2E/DX2                !
 ! A10   A(13,4,17)            122.0078         estimate D2E/DX2                !
 ! A11   A(3,5,8)              126.6827         estimate D2E/DX2                !
 ! A12   A(3,5,24)             128.4411         estimate D2E/DX2                !
 ! A13   A(8,5,24)             104.8028         estimate D2E/DX2                !
 ! A14   A(2,6,7)              119.3605         estimate D2E/DX2                !
 ! A15   A(2,6,29)             121.2182         estimate D2E/DX2                !
 ! A16   A(7,6,29)             119.4213         estimate D2E/DX2                !
 ! A17   A(5,8,33)             108.6491         estimate D2E/DX2                !
 ! A18   A(5,8,42)             133.0149         estimate D2E/DX2                !
 ! A19   A(33,8,42)            118.1809         estimate D2E/DX2                !
 ! A20   A(10,9,24)            120.4316         estimate D2E/DX2                !
 ! A21   A(10,9,46)            120.4278         estimate D2E/DX2                !
 ! A22   A(24,9,46)            119.1405         estimate D2E/DX2                !
 ! A23   A(12,11,17)           120.3437         estimate D2E/DX2                !
 ! A24   A(12,11,23)           120.3864         estimate D2E/DX2                !
 ! A25   A(17,11,23)           119.2699         estimate D2E/DX2                !
 ! A26   A(2,13,4)             117.8263         estimate D2E/DX2                !
 ! A27   A(2,13,22)            124.3677         estimate D2E/DX2                !
 ! A28   A(4,13,22)            117.1787         estimate D2E/DX2                !
 ! A29   A(2,14,27)            122.6753         estimate D2E/DX2                !
 ! A30   A(2,14,34)            119.0767         estimate D2E/DX2                !
 ! A31   A(27,14,34)           118.2453         estimate D2E/DX2                !
 ! A32   A(16,15,19)           120.704          estimate D2E/DX2                !
 ! A33   A(16,15,25)           120.7137         estimate D2E/DX2                !
 ! A34   A(19,15,25)           118.5823         estimate D2E/DX2                !
 ! A35   A(4,17,11)            119.823          estimate D2E/DX2                !
 ! A36   A(4,17,18)            120.1072         estimate D2E/DX2                !
 ! A37   A(11,17,18)           120.0698         estimate D2E/DX2                !
 ! A38   A(15,19,24)           121.3629         estimate D2E/DX2                !
 ! A39   A(15,19,33)           130.0912         estimate D2E/DX2                !
 ! A40   A(24,19,33)           108.3766         estimate D2E/DX2                !
 ! A41   A(3,20,21)            110.7594         estimate D2E/DX2                !
 ! A42   A(3,20,35)            110.1009         estimate D2E/DX2                !
 ! A43   A(3,20,39)            102.1537         estimate D2E/DX2                !
 ! A44   A(21,20,35)           110.7718         estimate D2E/DX2                !
 ! A45   A(21,20,39)           110.7749         estimate D2E/DX2                !
 ! A46   A(35,20,39)           111.9941         estimate D2E/DX2                !
 ! A47   A(3,22,13)            132.0551         estimate D2E/DX2                !
 ! A48   A(3,22,23)            107.3575         estimate D2E/DX2                !
 ! A49   A(13,22,23)           119.8446         estimate D2E/DX2                !
 ! A50   A(11,23,22)           121.4152         estimate D2E/DX2                !
 ! A51   A(11,23,39)           127.7902         estimate D2E/DX2                !
 ! A52   A(22,23,39)           110.6182         estimate D2E/DX2                !
 ! A53   A(5,24,9)             130.8026         estimate D2E/DX2                !
 ! A54   A(5,24,19)            109.3961         estimate D2E/DX2                !
 ! A55   A(9,24,19)            119.2223         estimate D2E/DX2                !
 ! A56   A(15,25,26)           119.7856         estimate D2E/DX2                !
 ! A57   A(15,25,46)           120.4442         estimate D2E/DX2                !
 ! A58   A(26,25,46)           119.7702         estimate D2E/DX2                !
 ! A59   A(14,27,28)           119.3202         estimate D2E/DX2                !
 ! A60   A(14,27,60)           121.3717         estimate D2E/DX2                !
 ! A61   A(28,27,60)           119.3081         estimate D2E/DX2                !
 ! A62   A(6,29,30)            119.7651         estimate D2E/DX2                !
 ! A63   A(6,29,54)            120.4522         estimate D2E/DX2                !
 ! A64   A(30,29,54)           119.7827         estimate D2E/DX2                !
 ! A65   A(32,31,42)           119.2879         estimate D2E/DX2                !
 ! A66   A(32,31,44)           119.3447         estimate D2E/DX2                !
 ! A67   A(42,31,44)           121.3673         estimate D2E/DX2                !
 ! A68   A(8,33,19)            108.68           estimate D2E/DX2                !
 ! A69   A(8,33,48)            122.0728         estimate D2E/DX2                !
 ! A70   A(19,33,48)           129.2443         estimate D2E/DX2                !
 ! A71   A(14,34,50)           118.8408         estimate D2E/DX2                !
 ! A72   A(14,34,54)           119.4987         estimate D2E/DX2                !
 ! A73   A(50,34,54)           121.6568         estimate D2E/DX2                !
 ! A74   A(20,35,36)           109.4842         estimate D2E/DX2                !
 ! A75   A(20,35,37)           109.4742         estimate D2E/DX2                !
 ! A76   A(20,35,38)           109.4792         estimate D2E/DX2                !
 ! A77   A(36,35,37)           109.424          estimate D2E/DX2                !
 ! A78   A(36,35,38)           109.4649         estimate D2E/DX2                !
 ! A79   A(37,35,38)           109.5008         estimate D2E/DX2                !
 ! A80   A(20,39,23)           102.2304         estimate D2E/DX2                !
 ! A81   A(20,39,40)           111.295          estimate D2E/DX2                !
 ! A82   A(20,39,41)           111.2897         estimate D2E/DX2                !
 ! A83   A(23,39,40)           111.3462         estimate D2E/DX2                !
 ! A84   A(23,39,41)           111.3477         estimate D2E/DX2                !
 ! A85   A(40,39,41)           109.2172         estimate D2E/DX2                !
 ! A86   A(8,42,31)            119.5083         estimate D2E/DX2                !
 ! A87   A(8,42,43)            120.2916         estimate D2E/DX2                !
 ! A88   A(31,42,43)           120.2            estimate D2E/DX2                !
 ! A89   A(31,44,45)           119.9447         estimate D2E/DX2                !
 ! A90   A(31,44,48)           120.0686         estimate D2E/DX2                !
 ! A91   A(45,44,48)           119.9867         estimate D2E/DX2                !
 ! A92   A(9,46,25)            120.9787         estimate D2E/DX2                !
 ! A93   A(9,46,47)            119.4828         estimate D2E/DX2                !
 ! A94   A(25,46,47)           119.5385         estimate D2E/DX2                !
 ! A95   A(33,48,44)           118.6955         estimate D2E/DX2                !
 ! A96   A(33,48,49)           120.6555         estimate D2E/DX2                !
 ! A97   A(44,48,49)           120.649          estimate D2E/DX2                !
 ! A98   A(34,50,51)           119.3389         estimate D2E/DX2                !
 ! A99   A(34,50,52)           121.222          estimate D2E/DX2                !
 ! A100  A(51,50,52)           119.4391         estimate D2E/DX2                !
 ! A101  A(50,52,53)           119.9636         estimate D2E/DX2                !
 ! A102  A(50,52,60)           120.022          estimate D2E/DX2                !
 ! A103  A(53,52,60)           120.0145         estimate D2E/DX2                !
 ! A104  A(29,54,34)           120.4532         estimate D2E/DX2                !
 ! A105  A(29,54,55)           119.7333         estimate D2E/DX2                !
 ! A106  A(34,54,55)           119.8134         estimate D2E/DX2                !
 ! A107  A(1,56,57)            109.4575         estimate D2E/DX2                !
 ! A108  A(1,56,58)            109.4689         estimate D2E/DX2                !
 ! A109  A(1,56,59)            109.4459         estimate D2E/DX2                !
 ! A110  A(57,56,58)           109.4707         estimate D2E/DX2                !
 ! A111  A(57,56,59)           109.489          estimate D2E/DX2                !
 ! A112  A(58,56,59)           109.4953         estimate D2E/DX2                !
 ! A113  A(27,60,52)           120.2737         estimate D2E/DX2                !
 ! A114  A(27,60,61)           119.8516         estimate D2E/DX2                !
 ! A115  A(52,60,61)           119.8746         estimate D2E/DX2                !
 ! D1    D(56,1,4,13)         -175.3874         estimate D2E/DX2                !
 ! D2    D(56,1,4,17)            1.5658         estimate D2E/DX2                !
 ! D3    D(4,1,56,57)           56.0746         estimate D2E/DX2                !
 ! D4    D(4,1,56,58)          -63.9149         estimate D2E/DX2                !
 ! D5    D(4,1,56,59)          176.0725         estimate D2E/DX2                !
 ! D6    D(13,2,6,7)             4.6544         estimate D2E/DX2                !
 ! D7    D(13,2,6,29)         -175.2924         estimate D2E/DX2                !
 ! D8    D(14,2,6,7)          -179.6851         estimate D2E/DX2                !
 ! D9    D(14,2,6,29)            0.3681         estimate D2E/DX2                !
 ! D10   D(6,2,13,4)           113.1557         estimate D2E/DX2                !
 ! D11   D(6,2,13,22)          -57.4874         estimate D2E/DX2                !
 ! D12   D(14,2,13,4)          -62.3933         estimate D2E/DX2                !
 ! D13   D(14,2,13,22)         126.9636         estimate D2E/DX2                !
 ! D14   D(6,2,14,27)         -179.0913         estimate D2E/DX2                !
 ! D15   D(6,2,14,34)            1.5157         estimate D2E/DX2                !
 ! D16   D(13,2,14,27)          -3.5589         estimate D2E/DX2                !
 ! D17   D(13,2,14,34)         177.0482         estimate D2E/DX2                !
 ! D18   D(20,3,5,8)           -15.5723         estimate D2E/DX2                !
 ! D19   D(20,3,5,24)          160.8274         estimate D2E/DX2                !
 ! D20   D(22,3,5,8)           172.0229         estimate D2E/DX2                !
 ! D21   D(22,3,5,24)          -11.5774         Scan                            !
 ! D22   D(5,3,20,21)          -20.643          estimate D2E/DX2                !
 ! D23   D(5,3,20,35)          102.2172         estimate D2E/DX2                !
 ! D24   D(5,3,20,39)         -138.6549         estimate D2E/DX2                !
 ! D25   D(22,3,20,21)         153.566          estimate D2E/DX2                !
 ! D26   D(22,3,20,35)         -83.5738         estimate D2E/DX2                !
 ! D27   D(22,3,20,39)          35.5541         estimate D2E/DX2                !
 ! D28   D(5,3,22,13)          -41.3578         estimate D2E/DX2                !
 ! D29   D(5,3,22,23)          148.8431         estimate D2E/DX2                !
 ! D30   D(20,3,22,13)         145.2195         estimate D2E/DX2                !
 ! D31   D(20,3,22,23)         -24.5796         estimate D2E/DX2                !
 ! D32   D(1,4,13,2)             2.9385         estimate D2E/DX2                !
 ! D33   D(1,4,13,22)          174.2618         estimate D2E/DX2                !
 ! D34   D(17,4,13,2)         -174.0527         estimate D2E/DX2                !
 ! D35   D(17,4,13,22)          -2.7294         estimate D2E/DX2                !
 ! D36   D(1,4,17,11)         -171.2615         estimate D2E/DX2                !
 ! D37   D(1,4,17,18)            8.7526         estimate D2E/DX2                !
 ! D38   D(13,4,17,11)           5.4763         estimate D2E/DX2                !
 ! D39   D(13,4,17,18)        -174.5096         estimate D2E/DX2                !
 ! D40   D(3,5,8,33)           179.7064         estimate D2E/DX2                !
 ! D41   D(3,5,8,42)            -5.0476         estimate D2E/DX2                !
 ! D42   D(24,5,8,33)            2.6224         estimate D2E/DX2                !
 ! D43   D(24,5,8,42)          177.8685         estimate D2E/DX2                !
 ! D44   D(3,5,24,9)            -9.1801         estimate D2E/DX2                !
 ! D45   D(3,5,24,19)          179.8214         estimate D2E/DX2                !
 ! D46   D(8,5,24,9)           167.8342         estimate D2E/DX2                !
 ! D47   D(8,5,24,19)           -3.1643         estimate D2E/DX2                !
 ! D48   D(2,6,29,30)          178.504          estimate D2E/DX2                !
 ! D49   D(2,6,29,54)           -1.5096         estimate D2E/DX2                !
 ! D50   D(7,6,29,30)           -1.4429         estimate D2E/DX2                !
 ! D51   D(7,6,29,54)          178.5435         estimate D2E/DX2                !
 ! D52   D(5,8,33,19)           -1.1755         estimate D2E/DX2                !
 ! D53   D(5,8,33,48)          179.3915         estimate D2E/DX2                !
 ! D54   D(42,8,33,19)        -177.2334         estimate D2E/DX2                !
 ! D55   D(42,8,33,48)           3.3335         estimate D2E/DX2                !
 ! D56   D(5,8,42,31)         -178.3657         estimate D2E/DX2                !
 ! D57   D(5,8,42,43)            1.6652         estimate D2E/DX2                !
 ! D58   D(33,8,42,31)          -3.4767         estimate D2E/DX2                !
 ! D59   D(33,8,42,43)         176.5542         estimate D2E/DX2                !
 ! D60   D(10,9,24,5)            4.7982         estimate D2E/DX2                !
 ! D61   D(10,9,24,19)         175.0626         estimate D2E/DX2                !
 ! D62   D(46,9,24,5)         -175.2128         estimate D2E/DX2                !
 ! D63   D(46,9,24,19)          -4.9484         estimate D2E/DX2                !
 ! D64   D(10,9,46,25)        -179.1796         estimate D2E/DX2                !
 ! D65   D(10,9,46,47)           0.7844         estimate D2E/DX2                !
 ! D66   D(24,9,46,25)           0.8315         estimate D2E/DX2                !
 ! D67   D(24,9,46,47)        -179.2046         estimate D2E/DX2                !
 ! D68   D(12,11,17,4)         178.1881         estimate D2E/DX2                !
 ! D69   D(12,11,17,18)         -1.8259         estimate D2E/DX2                !
 ! D70   D(23,11,17,4)          -1.7831         estimate D2E/DX2                !
 ! D71   D(23,11,17,18)        178.2028         estimate D2E/DX2                !
 ! D72   D(12,11,23,22)        175.5187         estimate D2E/DX2                !
 ! D73   D(12,11,23,39)         -9.7769         estimate D2E/DX2                !
 ! D74   D(17,11,23,22)         -4.5101         estimate D2E/DX2                !
 ! D75   D(17,11,23,39)        170.1943         estimate D2E/DX2                !
 ! D76   D(2,13,22,3)           -1.5688         estimate D2E/DX2                !
 ! D77   D(2,13,22,23)         167.1935         estimate D2E/DX2                !
 ! D78   D(4,13,22,3)         -172.2673         estimate D2E/DX2                !
 ! D79   D(4,13,22,23)          -3.505          estimate D2E/DX2                !
 ! D80   D(2,14,27,28)           1.6453         estimate D2E/DX2                !
 ! D81   D(2,14,27,60)        -178.3423         estimate D2E/DX2                !
 ! D82   D(34,14,27,28)       -178.9569         estimate D2E/DX2                !
 ! D83   D(34,14,27,60)          1.0555         estimate D2E/DX2                !
 ! D84   D(2,14,34,50)         178.3891         estimate D2E/DX2                !
 ! D85   D(2,14,34,54)          -2.2942         estimate D2E/DX2                !
 ! D86   D(27,14,34,50)         -1.0309         estimate D2E/DX2                !
 ! D87   D(27,14,34,54)        178.2858         estimate D2E/DX2                !
 ! D88   D(16,15,19,24)        177.1562         estimate D2E/DX2                !
 ! D89   D(16,15,19,33)         -8.1529         estimate D2E/DX2                !
 ! D90   D(25,15,19,24)         -2.8553         estimate D2E/DX2                !
 ! D91   D(25,15,19,33)        171.8356         estimate D2E/DX2                !
 ! D92   D(16,15,25,26)         -1.4539         estimate D2E/DX2                !
 ! D93   D(16,15,25,46)        178.6136         estimate D2E/DX2                !
 ! D94   D(19,15,25,26)        178.5576         estimate D2E/DX2                !
 ! D95   D(19,15,25,46)         -1.3749         estimate D2E/DX2                !
 ! D96   D(15,19,24,5)         178.2702         estimate D2E/DX2                !
 ! D97   D(15,19,24,9)           6.0697         estimate D2E/DX2                !
 ! D98   D(33,19,24,5)           2.5479         estimate D2E/DX2                !
 ! D99   D(33,19,24,9)        -169.6526         estimate D2E/DX2                !
 ! D100  D(15,19,33,8)        -176.0668         estimate D2E/DX2                !
 ! D101  D(15,19,33,48)          3.3128         estimate D2E/DX2                !
 ! D102  D(24,19,33,8)          -0.8425         estimate D2E/DX2                !
 ! D103  D(24,19,33,48)        178.5371         estimate D2E/DX2                !
 ! D104  D(3,20,35,36)         172.3407         estimate D2E/DX2                !
 ! D105  D(3,20,35,37)          52.3888         estimate D2E/DX2                !
 ! D106  D(3,20,35,38)         -67.6542         estimate D2E/DX2                !
 ! D107  D(21,20,35,36)        -64.8063         estimate D2E/DX2                !
 ! D108  D(21,20,35,37)        175.2418         estimate D2E/DX2                !
 ! D109  D(21,20,35,38)         55.1988         estimate D2E/DX2                !
 ! D110  D(39,20,35,36)         59.4109         estimate D2E/DX2                !
 ! D111  D(39,20,35,37)        -60.541          estimate D2E/DX2                !
 ! D112  D(39,20,35,38)        179.416          estimate D2E/DX2                !
 ! D113  D(3,20,39,23)         -32.9359         estimate D2E/DX2                !
 ! D114  D(3,20,39,40)          86.0268         estimate D2E/DX2                !
 ! D115  D(3,20,39,41)        -151.8979         estimate D2E/DX2                !
 ! D116  D(21,20,39,23)       -150.9367         estimate D2E/DX2                !
 ! D117  D(21,20,39,40)        -31.9741         estimate D2E/DX2                !
 ! D118  D(21,20,39,41)         90.1012         estimate D2E/DX2                !
 ! D119  D(35,20,39,23)         84.8477         estimate D2E/DX2                !
 ! D120  D(35,20,39,40)       -156.1896         estimate D2E/DX2                !
 ! D121  D(35,20,39,41)        -34.1143         estimate D2E/DX2                !
 ! D122  D(3,22,23,11)         178.516          estimate D2E/DX2                !
 ! D123  D(3,22,23,39)           2.9854         estimate D2E/DX2                !
 ! D124  D(13,22,23,11)          7.2358         estimate D2E/DX2                !
 ! D125  D(13,22,23,39)       -168.2948         estimate D2E/DX2                !
 ! D126  D(11,23,39,20)       -155.8781         estimate D2E/DX2                !
 ! D127  D(11,23,39,40)         85.1954         estimate D2E/DX2                !
 ! D128  D(11,23,39,41)        -36.9571         estimate D2E/DX2                !
 ! D129  D(22,23,39,20)         19.2945         estimate D2E/DX2                !
 ! D130  D(22,23,39,40)        -99.6321         estimate D2E/DX2                !
 ! D131  D(22,23,39,41)        138.2155         estimate D2E/DX2                !
 ! D132  D(15,25,46,9)           2.411          estimate D2E/DX2                !
 ! D133  D(15,25,46,47)       -177.5529         estimate D2E/DX2                !
 ! D134  D(26,25,46,9)        -177.5215         estimate D2E/DX2                !
 ! D135  D(26,25,46,47)          2.5145         estimate D2E/DX2                !
 ! D136  D(14,27,60,52)          0.1735         estimate D2E/DX2                !
 ! D137  D(14,27,60,61)       -179.8335         estimate D2E/DX2                !
 ! D138  D(28,27,60,52)       -179.814          estimate D2E/DX2                !
 ! D139  D(28,27,60,61)          0.1789         estimate D2E/DX2                !
 ! D140  D(6,29,54,34)           0.6991         estimate D2E/DX2                !
 ! D141  D(6,29,54,55)        -179.2671         estimate D2E/DX2                !
 ! D142  D(30,29,54,34)       -179.3145         estimate D2E/DX2                !
 ! D143  D(30,29,54,55)          0.7193         estimate D2E/DX2                !
 ! D144  D(32,31,42,8)        -178.8061         estimate D2E/DX2                !
 ! D145  D(32,31,42,43)          1.163          estimate D2E/DX2                !
 ! D146  D(44,31,42,8)           1.2191         estimate D2E/DX2                !
 ! D147  D(44,31,42,43)       -178.8118         estimate D2E/DX2                !
 ! D148  D(32,31,44,45)          1.4026         estimate D2E/DX2                !
 ! D149  D(32,31,44,48)       -178.5847         estimate D2E/DX2                !
 ! D150  D(42,31,44,45)       -178.6226         estimate D2E/DX2                !
 ! D151  D(42,31,44,48)          1.3901         estimate D2E/DX2                !
 ! D152  D(8,33,48,44)          -0.7936         estimate D2E/DX2                !
 ! D153  D(8,33,48,49)         179.2138         estimate D2E/DX2                !
 ! D154  D(19,33,48,44)        179.9            estimate D2E/DX2                !
 ! D155  D(19,33,48,49)         -0.0926         estimate D2E/DX2                !
 ! D156  D(14,34,50,51)        179.8353         estimate D2E/DX2                !
 ! D157  D(14,34,50,52)         -0.2173         estimate D2E/DX2                !
 ! D158  D(54,34,50,51)          0.5339         estimate D2E/DX2                !
 ! D159  D(54,34,50,52)       -179.5186         estimate D2E/DX2                !
 ! D160  D(14,34,54,29)          1.1994         estimate D2E/DX2                !
 ! D161  D(14,34,54,55)       -178.8344         estimate D2E/DX2                !
 ! D162  D(50,34,54,29)       -179.5037         estimate D2E/DX2                !
 ! D163  D(50,34,54,55)          0.4625         estimate D2E/DX2                !
 ! D164  D(31,44,48,33)         -1.5829         estimate D2E/DX2                !
 ! D165  D(31,44,48,49)        178.4097         estimate D2E/DX2                !
 ! D166  D(45,44,48,33)        178.4298         estimate D2E/DX2                !
 ! D167  D(45,44,48,49)         -1.5776         estimate D2E/DX2                !
 ! D168  D(34,50,52,53)       -178.5747         estimate D2E/DX2                !
 ! D169  D(34,50,52,60)          1.4681         estimate D2E/DX2                !
 ! D170  D(51,50,52,53)          1.3727         estimate D2E/DX2                !
 ! D171  D(51,50,52,60)       -178.5845         estimate D2E/DX2                !
 ! D172  D(50,52,60,27)         -1.4564         estimate D2E/DX2                !
 ! D173  D(50,52,60,61)        178.5506         estimate D2E/DX2                !
 ! D174  D(53,52,60,27)        178.5863         estimate D2E/DX2                !
 ! D175  D(53,52,60,61)         -1.4066         estimate D2E/DX2                !
 --------------------------------------------------------------------------------
 Trust Radius=3.00D-01 FncErr=1.00D-07 GrdErr=1.00D-07
 Number of optimizations in scan=  36
 Number of steps in this run=    366 maximum allowed number of steps=    366.
 GradGradGradGradGradGradGradGradGradGradGradGradGradGradGradGradGradGrad

 Stoichiometry    C34H26O
 Framework group  C1[X(C34H26O)]
 Deg. of freedom   177
 Full point group                 C1      NOp   1
 Largest Abelian subgroup         C1      NOp   1
 Largest concise Abelian subgroup C1      NOp   1
                         Standard orientation:                         
 ---------------------------------------------------------------------
 Center     Atomic      Atomic             Coordinates (Angstroms)
 Number     Number       Type             X           Y           Z
 ---------------------------------------------------------------------
      1          8           0        3.787980    1.307165    0.371602
      2          6           0        1.488256   -0.003750    0.836927
      3          6           0       -1.148543    1.569036   -0.240950
      4          6           0        2.695058    1.925893   -0.174534
      5          6           0       -1.834850    0.400470   -0.311359
      6          6           0        0.844698   -0.012414    2.052278
      7          1           0        0.346037    0.749600    2.320344
      8          6           0       -3.270828    0.185272    0.044535
      9          6           0       -0.206987   -1.264549   -1.491787
     10          1           0        0.476832   -0.622112   -1.640959
     11          6           0        1.587061    3.811874   -1.184941
     12          1           0        1.622389    4.665952   -1.599916
     13          6           0        1.469873    1.246228    0.020100
     14          6           0        2.235845   -1.159499    0.430908
     15          6           0       -2.254918   -3.163861   -1.135729
     16          1           0       -2.948705   -3.801664   -1.016728
     17          6           0        2.760633    3.160071   -0.816088
     18          1           0        3.603120    3.556044   -1.001734
     19          6           0       -2.412654   -1.855376   -0.699977
     20          6           0       -1.832191    2.924787   -0.107552
     21          1           0       -2.784848    2.872912   -0.409632
     22          6           0        0.297361    1.897075   -0.411380
     23          6           0        0.373324    3.204654   -0.940876
     24          6           0       -1.369402   -0.911601   -0.815988
     25          6           0       -1.060759   -3.520566   -1.749810
     26          1           0       -0.926465   -4.416696   -2.036197
     27          6           0        2.942494   -1.221927   -0.798051
     28          1           0        2.945559   -0.465190   -1.371619
     29          6           0        0.913054   -1.133208    2.908741
     30          1           0        0.478221   -1.108840    3.752898
     31          6           0       -5.522522    0.500426    0.851709
     32          1           0       -6.189450    1.069730    1.214761
     33          6           0       -3.593476   -1.174198   -0.178688
     34          6           0        2.265163   -2.299012    1.283466
     35          6           0       -1.747506    3.416867    1.340615
     36          1           0       -2.078625    4.337490    1.392827
     37          1           0       -0.815884    3.388295    1.641197
     38          1           0       -2.294136    2.840206    1.914188
     39          6           0       -0.999519    3.805123   -1.067876
     40          1           0       -1.336088    3.741658   -1.996753
     41          1           0       -1.005940    4.753722   -0.782879
     42          6           0       -4.249512    1.013102    0.602628
     43          1           0       -4.049839    1.918165    0.810476
     44          6           0       -5.834653   -0.829250    0.579183
     45          1           0       -6.713424   -1.152085    0.738329
     46          6           0       -0.057627   -2.573114   -1.947452
     47          1           0        0.738897   -2.822306   -2.399458
     48          6           0       -4.862052   -1.683183    0.075296
     49          1           0       -5.059755   -2.597018   -0.092372
     50          6           0        2.981224   -3.457899    0.859060
     51          1           0        3.007400   -4.221658    1.423623
     52          6           0        3.625891   -3.489354   -0.339138
     53          1           0        4.080655   -4.278061   -0.613121
     54          6           0        1.600330   -2.252696    2.531136
     55          1           0        1.630949   -3.004696    3.110843
     56          6           0        5.040607    1.979928    0.304022
     57          1           0        4.958100    2.865698    0.715486
     58          1           0        5.307913    2.078864   -0.633135
     59          1           0        5.716920    1.458667    0.783496
     60          6           0        3.620158   -2.351256   -1.174383
     61          1           0        4.088143   -2.368562   -2.001044
 ---------------------------------------------------------------------
 Rotational constants (GHZ):      0.1735853      0.1180700      0.0843557
 Standard basis: 6-31G(d,p) (6D, 7F)
 There are   655 symmetry adapted cartesian basis functions of A   symmetry.
 There are   655 symmetry adapted basis functions of A   symmetry.
   655 basis functions,  1162 primitive gaussians,   655 cartesian basis functions
   119 alpha electrons      119 beta electrons
       nuclear repulsion energy      3612.9033715848 Hartrees.
 NAtoms=   61 NActive=   61 NUniq=   61 SFac= 1.00D+00 NAtFMM=   60 NAOKFM=T Big=T
 Integral buffers will be    131072 words long.
 Raffenetti 1 integral format.
 Two-electron integral symmetry is turned on.
 One-electron integrals computed using PRISM.
 NBasis=   655 RedAO= T EigKep=  2.24D-04  NBF=   655
 NBsUse=   655 1.00D-06 EigRej= -1.00D+00 NBFU=   655
 ExpMin= 1.61D-01 ExpMax= 5.48D+03 ExpMxC= 8.25D+02 IAcc=1 IRadAn=         1 AccDes= 0.00D+00
 Harris functional with IExCor=  205 and IRadAn=       1 diagonalized for initial guess.
 HarFok:  IExCor=  205 AccDes= 0.00D+00 IRadAn=         1 IDoV= 1 UseB2=F ITyADJ=14
 ICtDFT=  3500011 ScaDFX=  1.000000  1.000000  1.000000  1.000000
 FoFCou: FMM=F IPFlag=           0 FMFlag=      100000 FMFlg1=        2001
         NFxFlg=           0 DoJE=T BraDBF=F KetDBF=T FulRan=T
         wScrn=  0.000000 ICntrl=     500 IOpCl=  0 I1Cent=   200000004 NGrid=           0
         NMat0=    1 NMatS0=      1 NMatT0=    0 NMatD0=    1 NMtDS0=    0 NMtDT0=    0
 Petite list used in FoFCou.
 Requested convergence on RMS density matrix=1.00D-08 within 128 cycles.
 Requested convergence on MAX density matrix=1.00D-06.
 Requested convergence on             energy=1.00D-06.
 No special actions if energy rises.
 Integral accuracy reduced to 1.0D-05 until final iterations.
 Initial convergence to 1.0D-05 achieved.  Increase integral accuracy.
 SCF Done:  E(RHF) =  -1377.24951636     A.U. after   16 cycles
            NFock= 16  Conv=0.71D-08     -V/T= 1.9972
 ExpMin= 1.61D-01 ExpMax= 5.48D+03 ExpMxC= 8.25D+02 IAcc=3 IRadAn=         5 AccDes= 0.00D+00
 HarFok:  IExCor=  205 AccDes= 0.00D+00 IRadAn=         5 IDoV=-2 UseB2=F ITyADJ=14
 ICtDFT= 12500011 ScaDFX=  1.000000  1.000000  1.000000  1.000000
 Range of M.O.s used for correlation:    36   655
 NBasis=   655 NAE=   119 NBE=   119 NFC=    35 NFV=     0
 NROrb=    620 NOA=    84 NOB=    84 NVA=   536 NVB=   536
 Semi-Direct transformation.
 ModeAB=           4 MOrb=            84 LenV=    1065242850
 LASXX=   2690014761 LTotXX=  2690014761 LenRXX=  5404436037
 LTotAB=  2714421276 MaxLAS=  7207715760 LenRXY=           0
 NonZer=  8094450798 LenScr= 16252390400 LnRSAI=  7207715760
 LnScr1= 14471966208 LExtra=           0 Total=  43336508405
 MaxDsk=          -1 SrtSym=           T ITran=            3
 JobTyp=0 Pass  1:  I=   1 to  84.
 SymMOI:  orbitals are not symmetric.
 Spin components of T(2) and E(2):
     alpha-alpha T2 =       0.2362774741D+00 E2=     -0.6300273347D+00
     alpha-beta  T2 =       0.1171753592D+01 E2=     -0.3406992799D+01
     beta-beta   T2 =       0.2362774741D+00 E2=     -0.6300273347D+00
 ANorm=    0.1626133002D+01
 E2 =    -0.4667047469D+01 EUMP2 =    -0.13819165638335D+04
 Orbital symmetries:
       Occupied  (A) (A) (A) (A) (A) (A) (A) (A) (A) (A) (A) (A)
                 (A) (A) (A) (A) (A) (A) (A) (A) (A) (A) (A) (A)
                 (A) (A) (A) (A) (A) (A) (A) (A) (A) (A) (A) (A)
                 (A) (A) (A) (A) (A) (A) (A) (A) (A) (A) (A) (A)
                 (A) (A) (A) (A) (A) (A) (A) (A) (A) (A) (A) (A)
                 (A) (A) (A) (A) (A) (A) (A) (A) (A) (A) (A) (A)
                 (A) (A) (A) (A) (A) (A) (A) (A) (A) (A) (A) (A)
                 (A) (A) (A) (A) (A) (A) (A) (A) (A) (A) (A) (A)
                 (A) (A) (A) (A) (A) (A) (A) (A) (A) (A) (A) (A)
                 (A) (A) (A) (A) (A) (A) (A) (A) (A) (A) (A)
       Virtual   (A) (A) (A) (A) (A) (A) (A) (A) (A) (A) (A) (A)
                 (A) (A) (A) (A) (A) (A) (A) (A) (A) (A) (A) (A)
                 (A) (A) (A) (A) (A) (A) (A) (A) (A) (A) (A) (A)
                 (A) (A) (A) (A) (A) (A) (A) (A) (A) (A) (A) (A)
                 (A) (A) (A) (A) (A) (A) (A) (A) (A) (A) (A) (A)
                 (A) (A) (A) (A) (A) (A) (A) (A) (A) (A) (A) (A)
                 (A) (A) (A) (A) (A) (A) (A) (A) (A) (A) (A) (A)
                 (A) (A) (A) (A) (A) (A) (A) (A) (A) (A) (A) (A)
                 (A) (A) (A) (A) (A) (A) (A) (A) (A) (A) (A) (A)
                 (A) (A) (A) (A) (A) (A) (A) (A) (A) (A) (A) (A)
                 (A) (A) (A) (A) (A) (A) (A) (A) (A) (A) (A) (A)
                 (A) (A) (A) (A) (A) (A) (A) (A) (A) (A) (A) (A)
                 (A) (A) (A) (A) (A) (A) (A) (A) (A) (A) (A) (A)
                 (A) (A) (A) (A) (A) (A) (A) (A) (A) (A) (A) (A)
                 (A) (A) (A) (A) (A) (A) (A) (A) (A) (A) (A) (A)
                 (A) (A) (A) (A) (A) (A) (A) (A) (A) (A) (A) (A)
                 (A) (A) (A) (A) (A) (A) (A) (A) (A) (A) (A) (A)
                 (A) (A) (A) (A) (A) (A) (A) (A) (A) (A) (A) (A)
                 (A) (A) (A) (A) (A) (A) (A) (A) (A) (A) (A) (A)
                 (A) (A) (A) (A) (A) (A) (A) (A) (A) (A) (A) (A)
                 (A) (A) (A) (A) (A) (A) (A) (A) (A) (A) (A) (A)
                 (A) (A) (A) (A) (A) (A) (A) (A) (A) (A) (A) (A)
                 (A) (A) (A) (A) (A) (A) (A) (A) (A) (A) (A) (A)
                 (A) (A) (A) (A) (A) (A) (A) (A) (A) (A) (A) (A)
                 (A) (A) (A) (A) (A) (A) (A) (A) (A) (A) (A) (A)
                 (A) (A) (A) (A) (A) (A) (A) (A) (A) (A) (A) (A)
                 (A) (A) (A) (A) (A) (A) (A) (A) (A) (A) (A) (A)
                 (A) (A) (A) (A) (A) (A) (A) (A) (A) (A) (A) (A)
                 (A) (A) (A) (A) (A) (A) (A) (A) (A) (A) (A) (A)
                 (A) (A) (A) (A) (A) (A) (A) (A) (A) (A) (A) (A)
                 (A) (A) (A) (A) (A) (A) (A) (A) (A) (A) (A) (A)
                 (A) (A) (A) (A) (A) (A) (A) (A) (A) (A) (A) (A)
                 (A) (A) (A) (A) (A) (A) (A) (A) (A) (A) (A) (A)
                 (A) (A) (A) (A) (A) (A) (A) (A) (A) (A) (A) (A)
                 (A) (A) (A) (A) (A) (A) (A) (A) (A) (A) (A) (A)
                 (A) (A) (A) (A) (A) (A) (A) (A) (A) (A) (A) (A)
                 (A) (A) (A) (A) (A) (A) (A) (A) (A) (A) (A) (A)
                 (A) (A) (A) (A) (A) (A) (A) (A) (A) (A) (A) (A)
                 (A) (A) (A) (A) (A) (A) (A) (A) (A) (A) (A) (A)
                 (A) (A) (A) (A) (A) (A) (A) (A) (A) (A) (A) (A)
                 (A) (A) (A) (A) (A) (A) (A) (A) (A) (A) (A) (A)
                 (A) (A) (A) (A) (A) (A) (A) (A) (A) (A) (A) (A)
                 (A) (A) (A) (A) (A) (A) (A) (A) (A) (A) (A) (A)
                 (A) (A) (A) (A) (A) (A) (A) (A) (A) (A) (A) (A)
                 (A) (A) (A) (A) (A) (A) (A) (A)
    12 initial guesses have been made.
 Convergence on wavefunction:    0.000001000000000
 Iteration     1 Dimension    12 NMult     0 NNew     12
 Iteration     2 Dimension    24 NMult    12 NNew     12
 Iteration     3 Dimension    27 NMult    24 NNew      3
 Iteration     4 Dimension    30 NMult    27 NNew      3
 Iteration     5 Dimension    33 NMult    30 NNew      3
 Iteration     6 Dimension    36 NMult    33 NNew      3
 Iteration     7 Dimension    39 NMult    36 NNew      3
 Iteration     8 Dimension    42 NMult    39 NNew      3
 Iteration     9 Dimension    45 NMult    42 NNew      3
 Iteration    10 Dimension    48 NMult    45 NNew      3
 Iteration    11 Dimension    51 NMult    48 NNew      3
 Iteration    12 Dimension    54 NMult    51 NNew      3
 Iteration    13 Dimension    57 NMult    54 NNew      3
 Iteration    14 Dimension    60 NMult    57 NNew      3
 Iteration    15 Dimension    63 NMult    60 NNew      3
 Iteration    16 Dimension    64 NMult    63 NNew      1
 Iteration    17 Dimension    65 NMult    64 NNew      1
 ***********************************************************************
 Excited states from <AA,BB:AA,BB> singles matrix:
 ***********************************************************************
 
 Ground to excited state transition densities written to RWF  633
 Ground to excited state transition electric dipole moments (Au):
       state          X           Y           Z        Dip. S.      Osc.
         1        -1.9913     -1.5247     -0.3560      6.4167      0.6843
         2         0.5710     -0.0533     -0.1842      0.3628      0.0404
         3        -0.1730     -1.6629      0.6224      3.1825      0.3961
 Ground to excited state transition velocity dipole moments (Au):
       state          X           Y           Z        Dip. S.      Osc.
         1         0.1801      0.0715      0.0376      0.0389      0.1623
         2        -0.0130     -0.0170     -0.0178      0.0008      0.0031
         3        -0.0091      0.0793      0.0017      0.0064      0.0228
 Ground to excited state transition magnetic dipole moments (Au):
       state          X           Y           Z
         1         0.5893     -0.0204     -1.7781
         2        -0.3378      0.3830     -1.1923
         3        -0.1408      0.1380      0.1035
 Ground to excited state transition velocity quadrupole moments (Au):
       state          XX          YY          ZZ          XY          XZ          YZ
         1        -0.5188      0.5692      0.1742     -0.4121      0.1755     -0.4885
         2         0.1392     -0.2600     -0.0888      0.1161     -0.0754      0.0029
         3         0.3073      0.5621     -0.1130      0.4116      0.0879     -0.0740
 <0|del|b> * <b|rxdel|0> + <0|del|b> * <b|delr+rdel|0>
 Rotatory Strengths (R) in cgs (10**-40 erg-esu-cm/Gauss)
       state          XX          YY          ZZ    R(velocity)    E-M Angle
         1      -212.9810    -73.4325    453.4812     55.6893       84.13
         2        24.0139     58.4830     -1.6692     26.9425       58.08
         3         9.1961      2.7134     35.0985     15.6693       45.76
 1/2[<0|r|b>*<b|rxdel|0> + (<0|rxdel|b>*<b|r|0>)*]
 Rotatory Strengths (R) in cgs (10**-40 erg-esu-cm/Gauss)
       state          XX          YY          ZZ     R(length)
         1       829.7931    -21.9953   -447.6099    120.0626
         2       136.3801     14.4371   -155.3414     -1.5081
         3       -17.2201    162.3287    -45.5735     33.1784
  1/2[<0|del|b>*<b|r|0> + (<0|r|b>*<b|del|0>)*] (Au)
       state          X           Y           Z        Dip. S.   Osc.(frdel)
         1        -0.3586     -0.1090     -0.0134      0.4809      0.3206
         2        -0.0074      0.0009      0.0033      0.0033      0.0022
         3         0.0016     -0.1319      0.0011      0.1293      0.0862

 Excitation energies and oscillator strengths:
 
 Excited State   1:      Singlet-A      4.3529 eV  284.83 nm  f=0.6843  <S**2>=0.000
     117 ->120        -0.10677
     117 ->121        -0.10257
     118 ->120        -0.11459
     119 ->120         0.63170
 This state for optimization and/or second-order correction.
 Total Energy, E(CIS) =  -1377.08955189    
 Copying the excited state density for this state as the 1-particle RhoCI density.
 
 Excited State   2:      Singlet-A      4.5441 eV  272.85 nm  f=0.0404  <S**2>=0.000
     114 ->120        -0.11194
     114 ->122        -0.10002
     117 ->120        -0.19180
     118 ->120         0.57269
     118 ->121         0.15061
     118 ->122        -0.10432
 
 Excited State   3:      Singlet-A      5.0797 eV  244.08 nm  f=0.3961  <S**2>=0.000
     115 ->120        -0.12506
     115 ->123        -0.10179
     116 ->123        -0.19314
     117 ->120        -0.32780
     117 ->121         0.38129
     118 ->120        -0.11337
     118 ->121         0.15502
     119 ->121         0.23199
 SavETr:  write IOETrn=   770 NScale= 10 NData=  16 NLR=1 NState=    3 LETran=      64.
 CISAX will form     1 AO SS matrices at one time.
          IDoAtm=11111111111111111111111111111111111111111111111111
          IDoAtm=11111111111
          Differentiating once with respect to electric field.
                with respect to dipole field.
          Differentiating once with respect to nuclear coordinates.
          There are     1 degrees of freedom in the 1st order CPHF.  IDoFFX=0 NUNeed=     1.
 LinEq1:  Iter=  0 NonCon=     1 RMS=5.90D-04 Max=3.03D-02 NDo=     1
 AX will form     1 AO Fock derivatives at one time.
 LinEq1:  Iter=  1 NonCon=     1 RMS=2.53D-04 Max=1.46D-02 NDo=     1
 LinEq1:  Iter=  2 NonCon=     1 RMS=9.08D-05 Max=6.33D-03 NDo=     1
 LinEq1:  Iter=  3 NonCon=     1 RMS=4.25D-05 Max=2.94D-03 NDo=     1
 LinEq1:  Iter=  4 NonCon=     1 RMS=1.48D-05 Max=8.73D-04 NDo=     1
 LinEq1:  Iter=  5 NonCon=     1 RMS=7.69D-06 Max=6.23D-04 NDo=     1
 LinEq1:  Iter=  6 NonCon=     1 RMS=3.27D-06 Max=1.90D-04 NDo=     1
 LinEq1:  Iter=  7 NonCon=     1 RMS=1.13D-06 Max=5.97D-05 NDo=     1
 LinEq1:  Iter=  8 NonCon=     1 RMS=4.52D-07 Max=2.29D-05 NDo=     1
 LinEq1:  Iter=  9 NonCon=     1 RMS=1.79D-07 Max=1.18D-05 NDo=     1
 LinEq1:  Iter= 10 NonCon=     1 RMS=9.86D-08 Max=8.26D-06 NDo=     1
 LinEq1:  Iter= 11 NonCon=     1 RMS=3.95D-08 Max=2.33D-06 NDo=     1
 LinEq1:  Iter= 12 NonCon=     1 RMS=1.69D-08 Max=1.06D-06 NDo=     1
 LinEq1:  Iter= 13 NonCon=     1 RMS=7.75D-09 Max=4.13D-07 NDo=     1
 LinEq1:  Iter= 14 NonCon=     1 RMS=3.34D-09 Max=1.84D-07 NDo=     1
 LinEq1:  Iter= 15 NonCon=     1 RMS=1.24D-09 Max=7.57D-08 NDo=     1
 LinEq1:  Iter= 16 NonCon=     1 RMS=4.10D-10 Max=3.61D-08 NDo=     1
 LinEq1:  Iter= 17 NonCon=     1 RMS=1.62D-10 Max=1.15D-08 NDo=     1
 LinEq1:  Iter= 18 NonCon=     1 RMS=5.53D-11 Max=3.71D-09 NDo=     1
 LinEq1:  Iter= 19 NonCon=     1 RMS=2.16D-11 Max=1.12D-09 NDo=     1
 LinEq1:  Iter= 20 NonCon=     0 RMS=7.04D-12 Max=3.31D-10 NDo=     1
 Linear equations converged to 1.000D-10 1.000D-09 after    20 iterations.
 End of Minotr F.D. properties file   721 does not exist.
 End of Minotr F.D. properties file   722 does not exist.
 End of Minotr F.D. properties file   788 does not exist.

 **********************************************************************

            Population analysis using the SCF density.

 **********************************************************************

 Orbital symmetries:
       Occupied  (A) (A) (A) (A) (A) (A) (A) (A) (A) (A) (A) (A)
                 (A) (A) (A) (A) (A) (A) (A) (A) (A) (A) (A) (A)
                 (A) (A) (A) (A) (A) (A) (A) (A) (A) (A) (A) (A)
                 (A) (A) (A) (A) (A) (A) (A) (A) (A) (A) (A) (A)
                 (A) (A) (A) (A) (A) (A) (A) (A) (A) (A) (A) (A)
                 (A) (A) (A) (A) (A) (A) (A) (A) (A) (A) (A) (A)
                 (A) (A) (A) (A) (A) (A) (A) (A) (A) (A) (A) (A)
                 (A) (A) (A) (A) (A) (A) (A) (A) (A) (A) (A) (A)
                 (A) (A) (A) (A) (A) (A) (A) (A) (A) (A) (A) (A)
                 (A) (A) (A) (A) (A) (A) (A) (A) (A) (A) (A)
       Virtual   (A) (A) (A) (A) (A) (A) (A) (A) (A) (A) (A) (A)
                 (A) (A) (A) (A) (A) (A) (A) (A) (A) (A) (A) (A)
                 (A) (A) (A) (A) (A) (A) (A) (A) (A) (A) (A) (A)
                 (A) (A) (A) (A) (A) (A) (A) (A) (A) (A) (A) (A)
                 (A) (A) (A) (A) (A) (A) (A) (A) (A) (A) (A) (A)
                 (A) (A) (A) (A) (A) (A) (A) (A) (A) (A) (A) (A)
                 (A) (A) (A) (A) (A) (A) (A) (A) (A) (A) (A) (A)
                 (A) (A) (A) (A) (A) (A) (A) (A) (A) (A) (A) (A)
                 (A) (A) (A) (A) (A) (A) (A) (A) (A) (A) (A) (A)
                 (A) (A) (A) (A) (A) (A) (A) (A) (A) (A) (A) (A)
                 (A) (A) (A) (A) (A) (A) (A) (A) (A) (A) (A) (A)
                 (A) (A) (A) (A) (A) (A) (A) (A) (A) (A) (A) (A)
                 (A) (A) (A) (A) (A) (A) (A) (A) (A) (A) (A) (A)
                 (A) (A) (A) (A) (A) (A) (A) (A) (A) (A) (A) (A)
                 (A) (A) (A) (A) (A) (A) (A) (A) (A) (A) (A) (A)
                 (A) (A) (A) (A) (A) (A) (A) (A) (A) (A) (A) (A)
                 (A) (A) (A) (A) (A) (A) (A) (A) (A) (A) (A) (A)
                 (A) (A) (A) (A) (A) (A) (A) (A) (A) (A) (A) (A)
                 (A) (A) (A) (A) (A) (A) (A) (A) (A) (A) (A) (A)
                 (A) (A) (A) (A) (A) (A) (A) (A) (A) (A) (A) (A)
                 (A) (A) (A) (A) (A) (A) (A) (A) (A) (A) (A) (A)
                 (A) (A) (A) (A) (A) (A) (A) (A) (A) (A) (A) (A)
                 (A) (A) (A) (A) (A) (A) (A) (A) (A) (A) (A) (A)
                 (A) (A) (A) (A) (A) (A) (A) (A) (A) (A) (A) (A)
                 (A) (A) (A) (A) (A) (A) (A) (A) (A) (A) (A) (A)
                 (A) (A) (A) (A) (A) (A) (A) (A) (A) (A) (A) (A)
                 (A) (A) (A) (A) (A) (A) (A) (A) (A) (A) (A) (A)
                 (A) (A) (A) (A) (A) (A) (A) (A) (A) (A) (A) (A)
                 (A) (A) (A) (A) (A) (A) (A) (A) (A) (A) (A) (A)
                 (A) (A) (A) (A) (A) (A) (A) (A) (A) (A) (A) (A)
                 (A) (A) (A) (A) (A) (A) (A) (A) (A) (A) (A) (A)
                 (A) (A) (A) (A) (A) (A) (A) (A) (A) (A) (A) (A)
                 (A) (A) (A) (A) (A) (A) (A) (A) (A) (A) (A) (A)
                 (A) (A) (A) (A) (A) (A) (A) (A) (A) (A) (A) (A)
                 (A) (A) (A) (A) (A) (A) (A) (A) (A) (A) (A) (A)
                 (A) (A) (A) (A) (A) (A) (A) (A) (A) (A) (A) (A)
                 (A) (A) (A) (A) (A) (A) (A) (A) (A) (A) (A) (A)
                 (A) (A) (A) (A) (A) (A) (A) (A) (A) (A) (A) (A)
                 (A) (A) (A) (A) (A) (A) (A) (A) (A) (A) (A) (A)
                 (A) (A) (A) (A) (A) (A) (A) (A) (A) (A) (A) (A)
                 (A) (A) (A) (A) (A) (A) (A) (A) (A) (A) (A) (A)
                 (A) (A) (A) (A) (A) (A) (A) (A) (A) (A) (A) (A)
                 (A) (A) (A) (A) (A) (A) (A) (A) (A) (A) (A) (A)
                 (A) (A) (A) (A) (A) (A) (A) (A) (A) (A) (A) (A)
                 (A) (A) (A) (A) (A) (A) (A) (A)
 The electronic state is 1-A.
 Alpha  occ. eigenvalues --  -20.57869 -11.29648 -11.24633 -11.24497 -11.24429
 Alpha  occ. eigenvalues --  -11.24241 -11.23566 -11.23108 -11.22826 -11.22714
 Alpha  occ. eigenvalues --  -11.22475 -11.22355 -11.22246 -11.22034 -11.21847
 Alpha  occ. eigenvalues --  -11.21783 -11.21746 -11.21616 -11.21171 -11.20807
 Alpha  occ. eigenvalues --  -11.20683 -11.20588 -11.20479 -11.20456 -11.20408
 Alpha  occ. eigenvalues --  -11.20396 -11.20283 -11.20252 -11.20222 -11.20164
 Alpha  occ. eigenvalues --  -11.20085 -11.19992 -11.19939 -11.19549 -11.17516
 Alpha  occ. eigenvalues --   -1.39882  -1.18865  -1.17328  -1.16151  -1.12692
 Alpha  occ. eigenvalues --   -1.11607  -1.10267  -1.07528  -1.06516  -1.03738
 Alpha  occ. eigenvalues --   -1.02506  -1.02443  -1.00928  -1.00296  -0.99192
 Alpha  occ. eigenvalues --   -0.98551  -0.96917  -0.96399  -0.93757  -0.89729
 Alpha  occ. eigenvalues --   -0.87254  -0.85880  -0.84666  -0.84064  -0.81799
 Alpha  occ. eigenvalues --   -0.81325  -0.80832  -0.79347  -0.78356  -0.75311
 Alpha  occ. eigenvalues --   -0.73341  -0.72477  -0.71126  -0.69772  -0.69350
 Alpha  occ. eigenvalues --   -0.69035  -0.68194  -0.67028  -0.66100  -0.65153
 Alpha  occ. eigenvalues --   -0.63872  -0.63705  -0.63113  -0.62626  -0.61453
 Alpha  occ. eigenvalues --   -0.61157  -0.60513  -0.60098  -0.59368  -0.58592
 Alpha  occ. eigenvalues --   -0.58227  -0.57783  -0.57426  -0.57077  -0.56808
 Alpha  occ. eigenvalues --   -0.54141  -0.53701  -0.53170  -0.52869  -0.51969
 Alpha  occ. eigenvalues --   -0.51767  -0.50990  -0.50559  -0.50095  -0.49629
 Alpha  occ. eigenvalues --   -0.49223  -0.48105  -0.47869  -0.47032  -0.46620
 Alpha  occ. eigenvalues --   -0.46208  -0.45619  -0.44234  -0.43036  -0.40276
 Alpha  occ. eigenvalues --   -0.36836  -0.35695  -0.33796  -0.31571  -0.30455
 Alpha  occ. eigenvalues --   -0.29779  -0.26932  -0.26450  -0.25626
 Alpha virt. eigenvalues --    0.06790   0.10437   0.12071   0.14168   0.14744
 Alpha virt. eigenvalues --    0.16396   0.17142   0.20350   0.21445   0.24665
 Alpha virt. eigenvalues --    0.25691   0.26287   0.27603   0.27817   0.28379
 Alpha virt. eigenvalues --    0.28996   0.29307   0.29576   0.30206   0.30990
 Alpha virt. eigenvalues --    0.31443   0.31971   0.32095   0.32918   0.33012
 Alpha virt. eigenvalues --    0.33491   0.33879   0.34069   0.34577   0.34780
 Alpha virt. eigenvalues --    0.35311   0.35509   0.36056   0.37137   0.37547
 Alpha virt. eigenvalues --    0.37845   0.38169   0.39110   0.40685   0.41392
 Alpha virt. eigenvalues --    0.41985   0.42338   0.42807   0.43146   0.43490
 Alpha virt. eigenvalues --    0.43604   0.44388   0.44901   0.45567   0.46218
 Alpha virt. eigenvalues --    0.46957   0.47991   0.48265   0.49065   0.49810
 Alpha virt. eigenvalues --    0.50472   0.50765   0.51084   0.51566   0.52144
 Alpha virt. eigenvalues --    0.53142   0.54726   0.55320   0.57635   0.58228
 Alpha virt. eigenvalues --    0.59459   0.60107   0.61239   0.61670   0.63160
 Alpha virt. eigenvalues --    0.64585   0.65875   0.68355   0.69076   0.69814
 Alpha virt. eigenvalues --    0.70744   0.71428   0.71986   0.72662   0.73532
 Alpha virt. eigenvalues --    0.74096   0.74693   0.75148   0.75416   0.75693
 Alpha virt. eigenvalues --    0.76402   0.76705   0.77191   0.77707   0.78134
 Alpha virt. eigenvalues --    0.78455   0.79093   0.79558   0.79668   0.80059
 Alpha virt. eigenvalues --    0.80287   0.80883   0.81059   0.81517   0.81820
 Alpha virt. eigenvalues --    0.82083   0.82692   0.83475   0.83732   0.83864
 Alpha virt. eigenvalues --    0.84018   0.84246   0.84887   0.85228   0.85747
 Alpha virt. eigenvalues --    0.85928   0.86130   0.86549   0.86827   0.87170
 Alpha virt. eigenvalues --    0.87441   0.88101   0.88382   0.88701   0.89340
 Alpha virt. eigenvalues --    0.89950   0.90291   0.90606   0.90915   0.91361
 Alpha virt. eigenvalues --    0.92138   0.93204   0.93896   0.94308   0.95077
 Alpha virt. eigenvalues --    0.95139   0.96182   0.96704   0.97904   0.98723
 Alpha virt. eigenvalues --    0.99791   1.01054   1.01781   1.02707   1.04207
 Alpha virt. eigenvalues --    1.04657   1.05978   1.07232   1.07582   1.08248
 Alpha virt. eigenvalues --    1.09381   1.09825   1.10192   1.11363   1.12011
 Alpha virt. eigenvalues --    1.12556   1.13041   1.13762   1.14101   1.14828
 Alpha virt. eigenvalues --    1.15272   1.15746   1.16042   1.16143   1.16622
 Alpha virt. eigenvalues --    1.17264   1.17793   1.17970   1.18113   1.18328
 Alpha virt. eigenvalues --    1.18995   1.19111   1.19442   1.19756   1.20019
 Alpha virt. eigenvalues --    1.20535   1.21148   1.21250   1.21666   1.22519
 Alpha virt. eigenvalues --    1.22912   1.23533   1.23863   1.24081   1.24788
 Alpha virt. eigenvalues --    1.25210   1.25606   1.26068   1.26587   1.27432
 Alpha virt. eigenvalues --    1.27771   1.28119   1.28848   1.29475   1.30043
 Alpha virt. eigenvalues --    1.30359   1.30616   1.31438   1.31702   1.33338
 Alpha virt. eigenvalues --    1.33511   1.34231   1.35339   1.36089   1.36255
 Alpha virt. eigenvalues --    1.37594   1.38669   1.39423   1.39972   1.40820
 Alpha virt. eigenvalues --    1.41931   1.42806   1.44658   1.45057   1.45625
 Alpha virt. eigenvalues --    1.46275   1.47108   1.48008   1.48811   1.49697
 Alpha virt. eigenvalues --    1.50936   1.51357   1.51718   1.52626   1.52926
 Alpha virt. eigenvalues --    1.54051   1.54287   1.55170   1.55696   1.56637
 Alpha virt. eigenvalues --    1.58241   1.58913   1.59072   1.61187   1.62019
 Alpha virt. eigenvalues --    1.62798   1.63628   1.64353   1.65485   1.65856
 Alpha virt. eigenvalues --    1.66467   1.67163   1.67664   1.68590   1.69062
 Alpha virt. eigenvalues --    1.69649   1.70076   1.70180   1.71219   1.71644
 Alpha virt. eigenvalues --    1.72174   1.72713   1.73228   1.74066   1.75880
 Alpha virt. eigenvalues --    1.76245   1.76788   1.77753   1.79664   1.80299
 Alpha virt. eigenvalues --    1.80925   1.81818   1.82175   1.83944   1.85784
 Alpha virt. eigenvalues --    1.86325   1.88718   1.89641   1.90071   1.91967
 Alpha virt. eigenvalues --    1.93792   1.95214   1.96646   1.98613   1.99795
 Alpha virt. eigenvalues --    2.01066   2.01805   2.04641   2.04841   2.06081
 Alpha virt. eigenvalues --    2.06598   2.07270   2.08079   2.09086   2.10098
 Alpha virt. eigenvalues --    2.10843   2.11489   2.11721   2.13121   2.14099
 Alpha virt. eigenvalues --    2.14516   2.15807   2.16877   2.18399   2.19034
 Alpha virt. eigenvalues --    2.19911   2.20713   2.21665   2.21817   2.22294
 Alpha virt. eigenvalues --    2.22979   2.23511   2.24321   2.24652   2.25393
 Alpha virt. eigenvalues --    2.26270   2.27063   2.27762   2.28125   2.28409
 Alpha virt. eigenvalues --    2.29362   2.29854   2.30249   2.30831   2.31150
 Alpha virt. eigenvalues --    2.32279   2.32812   2.33002   2.33993   2.34218
 Alpha virt. eigenvalues --    2.34436   2.35183   2.36264   2.36626   2.37204
 Alpha virt. eigenvalues --    2.37543   2.37976   2.38161   2.38627   2.39360
 Alpha virt. eigenvalues --    2.39735   2.39934   2.40641   2.41015   2.41717
 Alpha virt. eigenvalues --    2.42805   2.43698   2.44353   2.44817   2.45961
 Alpha virt. eigenvalues --    2.47981   2.48597   2.48849   2.49543   2.51160
 Alpha virt. eigenvalues --    2.51455   2.54019   2.54592   2.55067   2.55909
 Alpha virt. eigenvalues --    2.57122   2.58342   2.59169   2.59747   2.60558
 Alpha virt. eigenvalues --    2.60656   2.61096   2.62488   2.62860   2.63685
 Alpha virt. eigenvalues --    2.63953   2.64717   2.64964   2.65900   2.66200
 Alpha virt. eigenvalues --    2.67103   2.67309   2.69422   2.69846   2.70626
 Alpha virt. eigenvalues --    2.72140   2.72834   2.73569   2.75617   2.76409
 Alpha virt. eigenvalues --    2.76806   2.78094   2.79471   2.80501   2.80773
 Alpha virt. eigenvalues --    2.81981   2.83245   2.84112   2.84586   2.84639
 Alpha virt. eigenvalues --    2.84898   2.85285   2.85552   2.85974   2.86246
 Alpha virt. eigenvalues --    2.86818   2.87514   2.87992   2.88168   2.88758
 Alpha virt. eigenvalues --    2.88888   2.89295   2.89941   2.90277   2.90698
 Alpha virt. eigenvalues --    2.91542   2.91975   2.92382   2.93832   2.94398
 Alpha virt. eigenvalues --    2.95026   2.96185   2.96468   2.96999   2.97564
 Alpha virt. eigenvalues --    2.98183   2.98436   3.00290   3.01302   3.02220
 Alpha virt. eigenvalues --    3.02609   3.03448   3.03565   3.04016   3.04679
 Alpha virt. eigenvalues --    3.05540   3.06153   3.07351   3.07605   3.08001
 Alpha virt. eigenvalues --    3.08921   3.10034   3.10479   3.11113   3.11277
 Alpha virt. eigenvalues --    3.12663   3.13292   3.13844   3.15761   3.18321
 Alpha virt. eigenvalues --    3.19157   3.19641   3.20566   3.22227   3.23413
 Alpha virt. eigenvalues --    3.23673   3.24379   3.24792   3.25855   3.26848
 Alpha virt. eigenvalues --    3.27634   3.27944   3.28734   3.30426   3.31110
 Alpha virt. eigenvalues --    3.32426   3.34330   3.36482   3.39101   3.42483
 Alpha virt. eigenvalues --    3.42825   3.43797   3.46134   3.47256   3.48474
 Alpha virt. eigenvalues --    3.51243   3.52171   3.52687   3.56001   3.58081
 Alpha virt. eigenvalues --    3.61486   3.62794   3.63435   3.65742   3.66454
 Alpha virt. eigenvalues --    3.69067   3.70908   3.71626   3.76861   3.82688
 Alpha virt. eigenvalues --    3.86969   3.90520   3.94860   3.96096   3.98104
 Alpha virt. eigenvalues --    3.99517   4.01271   4.01934   4.03873   4.06362
 Alpha virt. eigenvalues --    4.06661   4.07796   4.08469   4.08751   4.09737
 Alpha virt. eigenvalues --    4.11193   4.12434   4.13392   4.14293   4.15616
 Alpha virt. eigenvalues --    4.16459   4.18964   4.21269   4.28280   4.28856
 Alpha virt. eigenvalues --    4.30825   4.42826   4.51650   4.52360   4.53648
 Alpha virt. eigenvalues --    4.54288   4.55557   4.56651   4.57836   4.58171
 Alpha virt. eigenvalues --    4.58632   4.58808   4.59773   4.60184   4.60432
 Alpha virt. eigenvalues --    4.61634   4.63131   4.64081   4.66932   4.68506
 Alpha virt. eigenvalues --    4.71947   4.76177   4.79856   4.81700   4.84008
 Alpha virt. eigenvalues --    4.86237   4.86845   4.91326   4.94351   4.95597
 Alpha virt. eigenvalues --    4.98331   4.99869   5.05684   5.08005   5.14243
 Alpha virt. eigenvalues --    5.16548   5.21378   5.33850   5.38726   5.41953
 Alpha virt. eigenvalues --    5.45841
          Condensed to atoms (all electrons):
 Mulliken charges:
               1
     1  O   -0.697758
     2  C    0.035736
     3  C   -0.041598
     4  C    0.419986
     5  C    0.017803
     6  C   -0.092433
     7  H    0.129642
     8  C   -0.040444
     9  C   -0.076442
    10  H    0.124273
    11  C   -0.113865
    12  H    0.133513
    13  C   -0.123659
    14  C   -0.021628
    15  C   -0.102394
    16  H    0.125494
    17  C   -0.180758
    18  H    0.133605
    19  C   -0.044371
    20  C   -0.198799
    21  H    0.135774
    22  C    0.027662
    23  C   -0.083778
    24  C   -0.031431
    25  C   -0.132705
    26  H    0.124833
    27  C   -0.076519
    28  H    0.126841
    29  C   -0.131143
    30  H    0.129735
    31  C   -0.136539
    32  H    0.124950
    33  C   -0.045498
    34  C   -0.043955
    35  C   -0.292619
    36  H    0.114586
    37  H    0.125593
    38  H    0.121674
    39  C   -0.169045
    40  H    0.145706
    41  H    0.125982
    42  C   -0.106893
    43  H    0.123852
    44  C   -0.131349
    45  H    0.128258
    46  C   -0.120423
    47  H    0.125000
    48  C   -0.094865
    49  H    0.130510
    50  C   -0.098658
    51  H    0.125310
    52  C   -0.133281
    53  H    0.126411
    54  C   -0.097678
    55  H    0.126471
    56  C    0.002002
    57  H    0.116317
    58  H    0.113436
    59  H    0.141222
    60  C   -0.146581
    61  H    0.124932
 Sum of Mulliken charges =   0.00000
 Mulliken charges with hydrogens summed into heavy atoms:
               1
     1  O   -0.697758
     2  C    0.035736
     3  C   -0.041598
     4  C    0.419986
     5  C    0.017803
     6  C    0.037209
     8  C   -0.040444
     9  C    0.047831
    11  C    0.019648
    13  C   -0.123659
    14  C   -0.021628
    15  C    0.023099
    17  C   -0.047153
    19  C   -0.044371
    20  C   -0.063025
    22  C    0.027662
    23  C   -0.083778
    24  C   -0.031431
    25  C   -0.007872
    27  C    0.050322
    29  C   -0.001408
    31  C   -0.011589
    33  C   -0.045498
    34  C   -0.043955
    35  C    0.069235
    39  C    0.102643
    42  C    0.016960
    44  C   -0.003091
    46  C    0.004577
    48  C    0.035645
    50  C    0.026652
    52  C   -0.006870
    54  C    0.028793
    56  C    0.372978
    60  C   -0.021649
 Electronic spatial extent (au):  <R**2>=          13287.7101
 Charge=              0.0000 electrons
 Dipole moment (field-independent basis, Debye):
    X=              1.7946    Y=              2.3324    Z=             -0.0434  Tot=              2.9432
 Quadrupole moment (field-independent basis, Debye-Ang):
   XX=           -179.4988   YY=           -176.2334   ZZ=           -199.5682
   XY=              4.0709   XZ=             -8.9098   YZ=             -1.4780
 Traceless Quadrupole moment (field-independent basis, Debye-Ang):
   XX=              5.6013   YY=              8.8667   ZZ=            -14.4681
   XY=              4.0709   XZ=             -8.9098   YZ=             -1.4780
 Octapole moment (field-independent basis, Debye-Ang**2):
  XXX=             60.4094  YYY=              9.6444  ZZZ=             23.8498  XYY=             25.3196
  XXY=             32.8986  XXZ=              0.5331  XZZ=             27.3225  YZZ=             -4.0705
  YYZ=            -14.3078  XYZ=             -6.0382
 Hexadecapole moment (field-independent basis, Debye-Ang**3):
 XXXX=          -8972.0185 YYYY=          -5987.1581 ZZZZ=          -1829.8897 XXXY=            344.2998
 XXXZ=           -217.6336 YYYX=             23.4858 YYYZ=            -52.0006 ZZZX=            -31.3673
 ZZZY=            -33.3563 XXYY=          -2397.4113 XXZZ=          -2018.9325 YYZZ=          -1324.1229
 XXYZ=             53.4392 YYXZ=            -12.7705 ZZXY=            -45.9322
 N-N= 3.612903371585D+03 E-N=-1.044171493503D+04  KE= 1.381177086285D+03
 Calling FoFJK, ICntrl=  10005127 FMM=T ISym2X=0 I1Cent= 0 IOpClX= 0 NMat=1 NMatS=1 NMatT=0.
 ***** Axes restored to original set *****
 -------------------------------------------------------------------
 Center     Atomic                   Forces (Hartrees/Bohr)
 Number     Number              X              Y              Z
 -------------------------------------------------------------------
      1        8           0.003826389    0.013769042   -0.002958326
      2        6          -0.005184122    0.001865303    0.000408223
      3        6          -0.021513869    0.074603374    0.041390736
      4        6          -0.003363102   -0.010695875    0.003537068
      5        6           0.024558552   -0.078327447   -0.016144022
      6        6           0.060506741   -0.068555301    0.105838523
      7        1          -0.055432203    0.066800374   -0.105423007
      8        6          -0.003489644    0.001226893    0.025850317
      9        6           0.025689211   -0.117737899   -0.057251017
     10        1          -0.017802578    0.115147781    0.061816616
     11        6          -0.013464846   -0.140938478    0.008198812
     12        1           0.019652387    0.131225272   -0.030724022
     13        6          -0.004794540   -0.001441761    0.024479776
     14        6          -0.006726198   -0.009773536    0.004973938
     15        6          -0.035333343    0.124646381    0.055526821
     16        1           0.027178197   -0.117198140   -0.065062230
     17        6           0.010537462   -0.103922814   -0.079356014
     18        1          -0.014169259    0.095578880    0.094617971
     19        6           0.007518005   -0.005917232    0.001909587
     20        6          -0.012758069    0.015450939    0.065304117
     21        1           0.032671708   -0.013654692   -0.063002187
     22        6          -0.001762843   -0.027832701   -0.041246089
     23        6          -0.006687423    0.021290018    0.009798825
     24        6          -0.002360088    0.011608089   -0.022165851
     25        6          -0.071763048    0.101546349   -0.055538963
     26        1           0.072271599   -0.096778443    0.063142081
     27        6          -0.045340280   -0.126476460    0.035905462
     28        1           0.047706320    0.122413350   -0.029510778
     29        6           0.109458809    0.051251665    0.072632564
     30        1          -0.105061170   -0.052367269   -0.070049250
     31        6           0.054806756   -0.022743398    0.126889277
     32        1          -0.056510835    0.030815917   -0.122207730
     33        6           0.001622410   -0.011196436   -0.003921780
     34        6           0.008551584    0.011982188    0.003808043
     35        6           0.096354636   -0.000449575    0.009159192
     36        1          -0.026838634    0.073968307   -0.065286489
     37        1          -0.046056705    0.015969322    0.087343848
     38        1          -0.032524999   -0.087068375   -0.036509584
     39        6          -0.043610596   -0.075326728    0.048173506
     40        1           0.086054805    0.009348555   -0.022174717
     41        1          -0.044950227    0.069450950   -0.029759162
     42        6           0.066272677   -0.116192556    0.011055029
     43        1          -0.067418161    0.112082427   -0.022116189
     44        6          -0.012961993    0.088479295    0.104959392
     45        1           0.011087980   -0.086688248   -0.105833102
     46        6          -0.052614476   -0.021292804   -0.128855495
     47        1           0.050944549    0.021602909    0.125207925
     48        6          -0.063798905    0.128019788   -0.008311251
     49        1           0.063601656   -0.119463598    0.018125668
     50        6           0.045229973    0.123357408   -0.036978601
     51        1          -0.048594426   -0.124031003    0.031593177
     52        6          -0.057990477    0.070188789   -0.101318438
     53        1           0.056110184   -0.069828007    0.101848222
     54        6           0.045356507    0.122613913   -0.039869426
     55        1          -0.049309488   -0.122783427    0.035050419
     56        6           0.027079429   -0.064572376   -0.075459748
     57        1          -0.064342400    0.066299018   -0.039673022
     58        1           0.083888416    0.047626631    0.031707978
     59        1          -0.041604787   -0.050956518    0.073502819
     60        6          -0.104515775   -0.050522983   -0.079597696
[...]
    D4       -1.12608   0.00000  -0.00078  -0.00031  -0.00109  -1.12717
    D5        3.08776   0.00000  -0.00077  -0.00029  -0.00106   3.08670
    D6        0.03922   0.00000   0.00010   0.00006   0.00016   0.03938
    D7       -3.06829   0.00000   0.00035   0.00013   0.00049  -3.06780
    D8        3.13005   0.00000   0.00008  -0.00003   0.00005   3.13011
    D9        0.02254   0.00000   0.00033   0.00005   0.00038   0.02292
   D10        2.12011   0.00005   0.00044   0.00002   0.00046   2.12057
   D11       -0.75066  -0.00008   0.00117   0.00048   0.00164  -0.74902
   D12       -0.96709   0.00005   0.00047   0.00011   0.00059  -0.96651
   D13        2.44532  -0.00009   0.00120   0.00057   0.00176   2.44708
   D14        3.06321  -0.00001  -0.00055  -0.00009  -0.00065   3.06256
   D15       -0.02362   0.00000  -0.00034  -0.00004  -0.00038  -0.02400
   D16       -0.13310   0.00000  -0.00058  -0.00019  -0.00077  -0.13387
   D17        3.06326   0.00001  -0.00037  -0.00013  -0.00050   3.06275
   D18       -0.62462  -0.00544   0.00080   0.00062   0.00143  -0.62319
   D19        3.07359  -0.01747   0.00138   0.00056   0.00196   3.07555
   D20       -3.02761  -0.01651  -0.00058   0.00003  -0.00053  -3.02814
   D21        0.67060  -0.02854   0.00000   0.00000   0.00000   0.67060
   D22       -0.11523  -0.00411  -0.00156  -0.00087  -0.00243  -0.11766
   D23        2.02291  -0.00374  -0.00172  -0.00097  -0.00269   2.02022
   D24       -2.13198  -0.00363  -0.00163  -0.00089  -0.00251  -2.13449
   D25        2.47128   0.00278  -0.00051  -0.00041  -0.00093   2.47035
   D26       -1.67376   0.00316  -0.00067  -0.00051  -0.00119  -1.67495
   D27        0.45453   0.00326  -0.00058  -0.00043  -0.00101   0.45352
   D28       -1.15501   0.00645   0.00163   0.00066   0.00228  -1.15272
   D29        2.16173   0.00647   0.00155   0.00065   0.00219   2.16392
   D30        2.66608  -0.00324   0.00039   0.00017   0.00057   2.66664
   D31       -0.30037  -0.00322   0.00031   0.00016   0.00047  -0.29990
   D32        0.18793  -0.00006   0.00095   0.00056   0.00151   0.18943
   D33        3.07099   0.00016   0.00028   0.00013   0.00041   3.07140
   D34       -2.88051  -0.00012   0.00118   0.00065   0.00183  -2.87868
   D35        0.00256   0.00010   0.00051   0.00022   0.00073   0.00330
   D36       -2.96994   0.00018   0.00018   0.00017   0.00036  -2.96958
   D37        0.07781  -0.00006   0.00003   0.00005   0.00008   0.07789
   D38        0.09459   0.00024  -0.00006   0.00008   0.00002   0.09461
   D39       -3.14085   0.00000  -0.00021  -0.00004  -0.00026  -3.14111
   D40       -2.73720  -0.00583   0.00171   0.00031   0.00203  -2.73516
   D41        0.33376  -0.00626   0.00270   0.00076   0.00347   0.33723
   D42       -0.04650   0.00338   0.00120   0.00034   0.00155  -0.04496
   D43        3.02445   0.00295   0.00219   0.00079   0.00298   3.02743
   D44       -0.65314   0.00662  -0.00121   0.00003  -0.00118  -0.65432
   D45        2.71516   0.00621  -0.00133  -0.00014  -0.00148   2.71368
   D46        2.96042  -0.00312  -0.00074  -0.00002  -0.00076   2.95966
   D47        0.04554  -0.00352  -0.00087  -0.00019  -0.00106   0.04448
   D48        3.12670   0.00000  -0.00016  -0.00004  -0.00020   3.12650
   D49       -0.00519   0.00000  -0.00011  -0.00003  -0.00014  -0.00533
   D50        0.01890   0.00000   0.00009   0.00003   0.00012   0.01902
   D51       -3.11299   0.00000   0.00013   0.00005   0.00018  -3.11281
   D52        0.03194  -0.00219  -0.00113  -0.00038  -0.00151   0.03043
   D53       -3.13299  -0.00096  -0.00083  -0.00027  -0.00110  -3.13409
   D54       -3.05418  -0.00189  -0.00191  -0.00073  -0.00264  -3.05682
   D55        0.06407  -0.00067  -0.00161  -0.00062  -0.00223   0.06184
   D56       -3.12681   0.00109   0.00033   0.00005   0.00038  -3.12643
   D57        0.00601   0.00055   0.00080   0.00016   0.00096   0.00697
   D58       -0.05915   0.00057   0.00136   0.00051   0.00187  -0.05729
   D59        3.07367   0.00003   0.00183   0.00062   0.00245   3.07612
   D60        0.07640  -0.00034  -0.00014  -0.00026  -0.00040   0.07600
   D61        2.97779  -0.00013   0.00001  -0.00006  -0.00005   2.97775
   D62       -3.02899  -0.00077   0.00006  -0.00018  -0.00012  -3.02911
   D63       -0.12760  -0.00056   0.00021   0.00002   0.00023  -0.12736
   D64       -3.05579  -0.00028  -0.00011   0.00001  -0.00010  -3.05589
   D65        0.07389  -0.00020  -0.00015   0.00000  -0.00015   0.07374
   D66        0.04995   0.00014  -0.00032  -0.00007  -0.00039   0.04956
   D67       -3.10356   0.00022  -0.00036  -0.00008  -0.00044  -3.10399
   D68        3.06496  -0.00043  -0.00014  -0.00012  -0.00026   3.06470
   D69        0.01586  -0.00020   0.00001   0.00000   0.00001   0.01587
   D70       -0.04627  -0.00011  -0.00019  -0.00014  -0.00033  -0.04660
   D71       -3.09537   0.00012  -0.00004  -0.00002  -0.00006  -3.09543
   D72        3.07255   0.00005  -0.00010  -0.00014  -0.00024   3.07231
   D73       -0.04801  -0.00068   0.00051   0.00018   0.00069  -0.04732
   D74       -0.09977  -0.00027  -0.00006  -0.00012  -0.00018  -0.09995
   D75        3.06285  -0.00100   0.00056   0.00020   0.00075   3.06360
   D76       -0.21939  -0.00002  -0.00150  -0.00090  -0.00240  -0.22179
   D77        2.73530  -0.00034  -0.00141  -0.00088  -0.00229   2.73301
   D78       -3.09745  -0.00027  -0.00081  -0.00047  -0.00127  -3.09873
   D79       -0.14275  -0.00059  -0.00072  -0.00045  -0.00117  -0.14392
   D80        0.01269   0.00000  -0.00008  -0.00003  -0.00010   0.01259
   D81       -3.12123   0.00000  -0.00002   0.00004   0.00003  -3.12120
   D82        3.10040   0.00000  -0.00028  -0.00008  -0.00036   3.10004
   D83       -0.03352   0.00000  -0.00023  -0.00001  -0.00023  -0.03375
   D84        3.13273   0.00000   0.00002  -0.00003  -0.00001   3.13272
   D85        0.00820   0.00000   0.00015   0.00001   0.00016   0.00836
   D86        0.04271   0.00000   0.00022   0.00002   0.00024   0.04296
   D87       -3.08182   0.00000   0.00035   0.00006   0.00041  -3.08140
   D88        3.11280   0.00025   0.00001  -0.00001   0.00000   3.11280
   D89       -0.08262  -0.00122  -0.00010   0.00027   0.00017  -0.08245
   D90       -0.04683  -0.00017  -0.00021  -0.00006  -0.00027  -0.04709
   D91        3.04094  -0.00165  -0.00032   0.00022  -0.00010   3.04084
   D92       -0.01659  -0.00032   0.00006   0.00007   0.00014  -0.01645
   D93        3.08883  -0.00066  -0.00011  -0.00005  -0.00016   3.08867
   D94       -3.14029   0.00010   0.00028   0.00012   0.00040  -3.13989
   D95       -0.03487  -0.00024   0.00010   0.00000   0.00010  -0.03477
   D96        3.07130   0.00121   0.00012   0.00019   0.00031   3.07161
   D97        0.12785   0.00059   0.00004   0.00005   0.00009   0.12794
   D98       -0.02768   0.00240   0.00021  -0.00003   0.00017  -0.02750
   D99       -2.97112   0.00177   0.00013  -0.00018  -0.00005  -2.97118
   D100      -3.09651   0.00123   0.00065   0.00000   0.00065  -3.09586
   D101       0.07023  -0.00008   0.00033  -0.00013   0.00020   0.07043
   D102      -0.00294  -0.00010   0.00055   0.00024   0.00080  -0.00215
   D103      -3.11939  -0.00141   0.00023   0.00012   0.00035  -3.11904
   D104      -3.10184  -0.00087   0.00034   0.00020   0.00054  -3.10130
   D105       1.09445  -0.00087   0.00041   0.00023   0.00065   1.09509
   D106      -1.00351  -0.00087   0.00033   0.00020   0.00053  -1.00299
   D107      -0.94857  -0.00008   0.00011   0.00006   0.00017  -0.94840
   D108      -3.03546  -0.00008   0.00018   0.00009   0.00027  -3.03519
   D109       1.14976  -0.00008   0.00010   0.00006   0.00015   1.14991
   D110       1.12139   0.00095   0.00023   0.00011   0.00034   1.12173
   D111      -0.96550   0.00095   0.00030   0.00014   0.00045  -0.96506
   D112      -3.06346   0.00095   0.00022   0.00011   0.00033  -3.06314
   D113      -0.43538  -0.00122   0.00068   0.00055   0.00124  -0.43415
   D114       1.62750  -0.00059   0.00067   0.00057   0.00124   1.62874
   D115      -2.55786  -0.00056   0.00064   0.00056   0.00120  -2.55666
   D116      -2.49743  -0.00044   0.00076   0.00062   0.00138  -2.49605
   D117      -0.43455   0.00019   0.00075   0.00063   0.00139  -0.43317
   D118       1.66328   0.00022   0.00072   0.00062   0.00135   1.66463
   D119       1.69236  -0.00060   0.00069   0.00059   0.00128   1.69365
   D120      -2.52794   0.00003   0.00068   0.00061   0.00129  -2.52666
   D121      -0.43011   0.00007   0.00065   0.00060   0.00125  -0.42886
   D122      -3.10024   0.00091   0.00062   0.00044   0.00106  -3.09918
   D123       0.02385   0.00152   0.00011   0.00018   0.00028   0.02413
   D124       0.19553   0.00069   0.00052   0.00042   0.00093   0.19646
   D125      -2.96357   0.00130   0.00001   0.00016   0.00016  -2.96341
   D126      -2.89573   0.00091  -0.00106  -0.00074  -0.00180  -2.89753
   D127       1.33832   0.00040  -0.00113  -0.00078  -0.00191   1.33641
   D128      -0.76643   0.00035  -0.00099  -0.00070  -0.00170  -0.76812
   D129       0.26499   0.00026  -0.00050  -0.00045  -0.00096   0.26403
   D130      -1.78415  -0.00026  -0.00057  -0.00049  -0.00106  -1.78521
   D131       2.39429  -0.00030  -0.00044  -0.00041  -0.00085   2.39344
   D132       0.03345   0.00026   0.00015   0.00007   0.00022   0.03367
   D133      -3.09616   0.00018   0.00020   0.00007   0.00026  -3.09590
   D134       3.13883  -0.00007  -0.00002  -0.00006  -0.00008   3.13874
   D135       0.00922  -0.00016   0.00002  -0.00006  -0.00004   0.00918
   D136       0.00275   0.00000   0.00009  -0.00001   0.00008   0.00283
   D137       3.14125   0.00000   0.00000  -0.00002  -0.00002   3.14123
   D138      -3.13117   0.00000   0.00015   0.00005   0.00020  -3.13097
   D139       0.00733   0.00000   0.00006   0.00005   0.00011   0.00743
   D140      -0.01130   0.00000  -0.00010   0.00000  -0.00010  -0.01140
   D141       3.13846   0.00000  -0.00001   0.00000   0.00000   3.13846
   D142       3.14014   0.00000  -0.00005   0.00001  -0.00004   3.14010
   D143       0.00672   0.00000   0.00003   0.00002   0.00005   0.00678
   D144      -3.13083  -0.00025  -0.00007  -0.00003  -0.00010  -3.13093
   D145       0.01896   0.00025  -0.00052  -0.00013  -0.00065   0.01832
   D146       0.01723  -0.00012  -0.00030  -0.00012  -0.00042   0.01681
   D147      -3.11617   0.00039  -0.00074  -0.00022  -0.00097  -3.11713
   D148       0.01160   0.00018  -0.00047  -0.00014  -0.00061   0.01099
   D149      -3.10997  -0.00018  -0.00087  -0.00031  -0.00118  -3.11115
   D150      -3.13651   0.00005  -0.00024  -0.00005  -0.00028  -3.13680
   D151       0.02510  -0.00032  -0.00064  -0.00021  -0.00086   0.02425
   D152      -0.02506   0.00029   0.00077   0.00032   0.00108  -0.02398
   D153       3.13620  -0.00020   0.00056   0.00022   0.00078   3.13698
   D154       3.08807   0.00178   0.00113   0.00046   0.00159   3.08966
   D155      -0.03386   0.00129   0.00093   0.00036   0.00129  -0.03257
   D156       3.12924   0.00000  -0.00003   0.00000  -0.00004   3.12920
   D157      -0.02234   0.00000  -0.00009  -0.00001  -0.00010  -0.02244
   D158      -0.02945   0.00000  -0.00016  -0.00004  -0.00020  -0.02965
   D159       3.10216   0.00000  -0.00021  -0.00005  -0.00027   3.10189
   D160       0.00944   0.00000   0.00007   0.00001   0.00008   0.00953
   D161      -3.14018   0.00000  -0.00001   0.00000  -0.00001  -3.14019
   D162      -3.11501   0.00000   0.00020   0.00005   0.00025  -3.11475
   D163       0.01856   0.00000   0.00012   0.00004   0.00016   0.01872
   D164      -0.02107   0.00023   0.00040   0.00012   0.00052  -0.02055
   D165       3.10085   0.00073   0.00061   0.00021   0.00082   3.10167
   D166       3.14058  -0.00013   0.00000  -0.00005  -0.00006   3.14053
   D167      -0.02068   0.00036   0.00020   0.00005   0.00025  -0.02043
   D168      -3.13786   0.00000   0.00001   0.00000   0.00001  -3.13785
   D169      -0.00928   0.00000  -0.00006  -0.00001  -0.00007  -0.00935
   D170      -0.00645   0.00000  -0.00004  -0.00001  -0.00005  -0.00650
   D171       3.12213   0.00000  -0.00011  -0.00002  -0.00013   3.12200
   D172       0.01927   0.00000   0.00005   0.00003   0.00008   0.01935
   D173      -3.11923   0.00000   0.00015   0.00003   0.00018  -3.11905
   D174      -3.13525   0.00000  -0.00001   0.00001   0.00000  -3.13525
   D175       0.00943   0.00000   0.00008   0.00002   0.00009   0.00953
         Item               Value     Threshold  Converged?
 Maximum Force            0.000129     0.000450     YES
 RMS     Force            0.000018     0.000300     YES
 Maximum Displacement     0.016074     0.001800     NO 
 RMS     Displacement     0.002414     0.001200     NO 
 Predicted change in Energy=-3.082724D-07
 GradGradGradGradGradGradGradGradGradGradGradGradGradGradGradGradGradGrad

 Stoichiometry    C34H26O
 Framework group  C1[X(C34H26O)]
 Deg. of freedom   177
 Full point group                 C1      NOp   1
 Largest Abelian subgroup         C1      NOp   1
 Largest concise Abelian subgroup C1      NOp   1
                         Standard orientation:                         
 ---------------------------------------------------------------------
 Center     Atomic      Atomic             Coordinates (Angstroms)
 Number     Number       Type             X           Y           Z
 ---------------------------------------------------------------------
      1          8           0        3.778913    1.449616   -0.191907
      2          6           0        1.585394    0.089379    0.789577
      3          6           0       -1.165991    1.445775    0.032690
      4          6           0        2.586386    2.017670   -0.469256
      5          6           0       -1.923395    0.323087   -0.490126
      6          6           0        0.908380    0.098117    1.986177
      7          1           0        0.281181    0.933819    2.226960
      8          6           0       -3.333232    0.059890   -0.136148
      9          6           0       -0.188828   -1.336955   -1.447348
     10          1           0        0.545731   -0.585082   -1.652016
     11          6           0        1.253677    3.930783   -1.100450
     12          1           0        1.207338    4.943789   -1.460502
     13          6           0        1.441179    1.286180   -0.088735
     14          6           0        2.432817   -1.040681    0.498795
     15          6           0       -2.170267   -3.281763   -1.156378
     16          1           0       -2.942365   -4.026990   -1.076819
     17          6           0        2.495143    3.284593   -1.013616
     18          1           0        3.380126    3.819789   -1.295117
     19          6           0       -2.406784   -1.977253   -0.783479
     20          6           0       -1.981774    2.747619    0.232120
     21          1           0       -2.972001    2.642809   -0.163501
     22          6           0        0.161864    1.920171   -0.297573
     23          6           0        0.129271    3.286323   -0.697210
     24          6           0       -1.399700   -0.997410   -0.848407
     25          6           0       -0.918374   -3.625193   -1.662165
     26          1           0       -0.719362   -4.639807   -1.959070
     27          6           0        3.108804   -1.210369   -0.738928
     28          1           0        3.002023   -0.464003   -1.499931
     29          6           0        1.037562   -0.934816    2.933016
     30          1           0        0.494354   -0.868696    3.858916
     31          6           0       -5.627456    0.272908    0.641215
     32          1           0       -6.408025    0.894710    1.043348
     33          6           0       -3.620957   -1.321842   -0.339826
     34          6           0        2.558095   -2.071364    1.455605
     35          6           0       -2.063785    3.152564    1.711003
     36          1           0       -2.674076    4.044670    1.829458
     37          1           0       -1.075759    3.369146    2.106486
     38          1           0       -2.500223    2.362600    2.313022
     39          6           0       -1.265151    3.810245   -0.617287
     40          1           0       -1.718924    3.861401   -1.604994
     41          1           0       -1.311355    4.804215   -0.183423
     42          6           0       -4.389047    0.832420    0.403978
     43          1           0       -4.282986    1.862791    0.657239
     44          6           0       -5.882808   -1.068997    0.380034
     45          1           0       -6.857912   -1.481893    0.569031
     46          6           0        0.053838   -2.652444   -1.822700
     47          1           0        1.004390   -2.910618   -2.252064
     48          6           0       -4.863098   -1.871689   -0.103232
     49          1           0       -5.033538   -2.919746   -0.275732
     50          6           0        3.380960   -3.194935    1.177066
     51          1           0        3.471053   -3.963187    1.925439
     52          6           0        4.032411   -3.309979   -0.007880
     53          1           0        4.650687   -4.166689   -0.210592
     54          6           0        1.847902   -1.993433    2.680554
     55          1           0        1.956666   -2.787655    3.398385
     56          6           0        4.972264    2.153448   -0.377448
     57          1           0        4.987787    3.070742    0.202806
     58          1           0        5.141745    2.388273   -1.424036
     59          1           0        5.759377    1.499422   -0.032083
     60          6           0        3.881729   -2.301981   -0.985644
     61          1           0        4.380585   -2.401131   -1.933911
 ---------------------------------------------------------------------
 Rotational constants (GHZ):      0.1738513      0.1127877      0.0818830
 Standard basis: 6-31G(d,p) (6D, 7F)
 There are   655 symmetry adapted cartesian basis functions of A   symmetry.
 There are   655 symmetry adapted basis functions of A   symmetry.
   655 basis functions,  1162 primitive gaussians,   655 cartesian basis functions
   119 alpha electrons      119 beta electrons
       nuclear repulsion energy      3572.3079089720 Hartrees.
 NAtoms=   61 NActive=   61 NUniq=   61 SFac= 1.00D+00 NAtFMM=   60 NAOKFM=T Big=T
 Integral buffers will be    131072 words long.
 Raffenetti 1 integral format.
 Two-electron integral symmetry is turned on.
 One-electron integrals computed using PRISM.
 NBasis=   655 RedAO= T EigKep=  2.44D-04  NBF=   655
 NBsUse=   655 1.00D-06 EigRej= -1.00D+00 NBFU=   655
 Initial guess from the checkpoint file:  "1540441.chk"
 B after Tr=     0.000000    0.000000    0.000000
         Rot=    1.000000   -0.000103    0.000038   -0.000206 Ang=  -0.03 deg.
 Requested convergence on RMS density matrix=1.00D-08 within 128 cycles.
 Requested convergence on MAX density matrix=1.00D-06.
 Requested convergence on             energy=1.00D-06.
 No special actions if energy rises.
 SCF Done:  E(RHF) =  -1377.52912991     A.U. after   10 cycles
            NFock= 10  Conv=0.47D-08     -V/T= 2.0010
 ExpMin= 1.61D-01 ExpMax= 5.48D+03 ExpMxC= 8.25D+02 IAcc=3 IRadAn=         5 AccDes= 0.00D+00
 HarFok:  IExCor=  205 AccDes= 0.00D+00 IRadAn=         5 IDoV=-2 UseB2=F ITyADJ=14
 ICtDFT= 12500011 ScaDFX=  1.000000  1.000000  1.000000  1.000000
 Range of M.O.s used for correlation:    36   655
 NBasis=   655 NAE=   119 NBE=   119 NFC=    35 NFV=     0
 NROrb=    620 NOA=    84 NOB=    84 NVA=   536 NVB=   536
 Semi-Direct transformation.
 ModeAB=           4 MOrb=            84 LenV=    1065263457
 LASXX=   2690014761 LTotXX=  2690014761 LenRXX=  5404436037
 LTotAB=  2714421276 MaxLAS=  7063662480 LenRXY=           0
 NonZer=  8094450798 LenScr= 16252390400 LnRSAI=  7063662480
 LnScr1= 14182729728 LExtra=           0 Total=  42903218645
 MaxDsk=          -1 SrtSym=           T ITran=            3
 JobTyp=0 Pass  1:  I=   1 to  84.
