
    -----------------------------------------------------------------------
          Psi4: An Open-Source Ab Initio Electronic Structure Package
                               Psi4 1.1 release

                         Git: Rev {HEAD} add49b9 


    R. M. Parrish, L. A. Burns, D. G. A. Smith, A. C. Simmonett,
    A. E. DePrince III, E. G. Hohenstein, U. Bozkaya, A. Yu. Sokolov,
    R. Di Remigio, R. M. Richard, J. F. Gonthier, A. M. James,
    H. R. McAlexander, A. Kumar, M. Saitow, X. Wang, B. P. Pritchard,
    P. Verma, H. F. Schaefer III, K. Patkowski, R. A. King, E. F. Valeev,
    F. A. Evangelista, J. M. Turney, T. D. Crawford, and C. D. Sherrill,
    J. Chem. Theory Comput. in press (2017).
    (doi: 10.1021/acs.jctc.7b00174)

    -----------------------------------------------------------------------


    Psi4 started on: Sunday, 19 November 2017 10:54AM

    Process ID:  25070
    PSIDATADIR: /home/dslochower/data/applications/psi4conda/share/psi4
    Memory:     500.0 MiB
    Threads:    1
    
  ==> Input File <==

--------------------------------------------------------------------------

memory 8000 mb

molecule  {
  0 1 
  C      1.718   2.544   6.070
  O      0.737   5.835   12.405
  C      1.130   2.832   4.835
  C      1.248   1.919   3.787
  C      1.922   0.711   3.951
  C      2.467   0.380   5.185
  C      2.355   1.290   6.230
  C      2.835   1.182   7.604
  C      3.577   0.181   8.215
  C      4.054   0.399   9.502
  C      3.814   1.610   10.149
  C      3.051   2.607   9.544
  C      2.511   2.376   8.284
  C      1.754   3.269   7.377
  C      1.253   4.503   7.633
  C      0.636   5.387   6.555
  C      -0.892   5.343   6.649
  C      1.198   6.782   6.916
  C      1.289   6.710   8.416
  C      1.282   7.756   9.314
  C      1.169   7.484   10.674
  C      1.027   6.169   11.108
  C      0.542   6.891   13.339
  C      1.106   5.073   10.218
  C      1.278   5.365   8.851
  C      0.807   3.713   10.757
  C      -0.315   3.054   10.311
  C      -0.700   1.810   10.859
  C      0.058   1.217   11.830
  C      1.229   1.847   12.311
  C      2.044   1.246   13.316
  C      3.164   1.865   13.779
  C      3.522   3.139   13.287
  C      2.763   3.745   12.321
  C      1.603   3.120   11.794
  H      0.652   3.644   4.709
  H      0.862   2.126   2.945
  H      2.008   0.113   3.218
  H      2.909   -0.451   5.312
  H      3.756   -0.635   7.764
  H      4.547   -0.282   9.944
  H      4.175   1.758   11.014
  H      2.901   3.434   9.987
  H      0.944   5.105   5.646
  H      1.354   8.653   9.008
  H      1.189   8.194   11.304
  H      -0.840   3.442   9.623
  H      -1.490   1.383   10.550
  H      -0.205   0.375   12.184
  H      1.800   0.398   13.668
  H      3.705   1.440   14.435
  H      4.293   3.578   13.627
  H      3.017   4.600   11.998
  H      -1.277   6.004   6.036
  H      -1.169   5.548   7.565
  H      -1.209   4.448   6.404
  H      2.088   6.927   6.508
  H      0.584   7.503   6.627
  H      -0.166   7.487   13.015
  H      1.375   7.397   13.439
  H      0.282   6.516   14.206
  units Angstrom
}

dih_string = "17 4 2 5 0.001"
set optking fixed_dihedral = $dih_string

optimize('B3LYP/cc-PVDZ')
--------------------------------------------------------------------------

  Memory set to   7.451 GiB by Python driver.
gradient() will perform analytic gradient computation.

*** tstart() called on warthog
*** at Sun Nov 19 10:54:11 2017

   => Loading Basis Set <=

    Name: CC-PVDZ
    Role: ORBITAL
    Keyword: BASIS
    atoms 1, 3-35 entry C          line   130 file /home/dslochower/data/applications/psi4conda/share/psi4/basis/cc-pvdz.gbs 
    atoms 2       entry O          line   190 file /home/dslochower/data/applications/psi4conda/share/psi4/basis/cc-pvdz.gbs 
    atoms 36-61   entry H          line    20 file /home/dslochower/data/applications/psi4conda/share/psi4/basis/cc-pvdz.gbs 


         ---------------------------------------------------------
                                   SCF
            by Justin Turney, Rob Parrish, and Andy Simmonett
                              RKS Reference
                        1 Threads,   7629 MiB Core
         ---------------------------------------------------------

  ==> Geometry <==

    Molecular point group: c1
    Full point group: C1

    Geometry (in Angstrom), charge = 0, multiplicity = 1:

       Center              X                  Y                   Z               Mass       
    ------------   -----------------  -----------------  -----------------  -----------------
           C          0.105058518914    -0.910112266777    -3.198555825550    12.000000000000
           O         -0.875941481086     2.380887733223     3.136444174450    15.994914619560
           C         -0.482941481086    -0.622112266777    -4.433555825550    12.000000000000
           C         -0.364941481086    -1.535112266777    -5.481555825550    12.000000000000
           C          0.309058518914    -2.743112266777    -5.317555825550    12.000000000000
           C          0.854058518914    -3.074112266777    -4.083555825550    12.000000000000
           C          0.742058518914    -2.164112266777    -3.038555825550    12.000000000000
           C          1.222058518914    -2.272112266777    -1.664555825550    12.000000000000
           C          1.964058518914    -3.273112266777    -1.053555825550    12.000000000000
           C          2.441058518914    -3.055112266777     0.233444174450    12.000000000000
           C          2.201058518914    -1.844112266777     0.880444174450    12.000000000000
           C          1.438058518914    -0.847112266777     0.275444174450    12.000000000000
           C          0.898058518914    -1.078112266777    -0.984555825550    12.000000000000
           C          0.141058518914    -0.185112266777    -1.891555825550    12.000000000000
           C         -0.359941481086     1.048887733223    -1.635555825550    12.000000000000
           C         -0.976941481086     1.932887733223    -2.713555825550    12.000000000000
           C         -2.504941481086     1.888887733223    -2.619555825550    12.000000000000
           C         -0.414941481086     3.327887733223    -2.352555825550    12.000000000000
           C         -0.323941481086     3.255887733223    -0.852555825550    12.000000000000
           C         -0.330941481086     4.301887733223     0.045444174450    12.000000000000
           C         -0.443941481086     4.029887733223     1.405444174450    12.000000000000
           C         -0.585941481086     2.714887733223     1.839444174450    12.000000000000
           C         -1.070941481086     3.436887733223     4.070444174450    12.000000000000
           C         -0.506941481086     1.618887733223     0.949444174450    12.000000000000
           C         -0.334941481086     1.910887733223    -0.417555825550    12.000000000000
           C         -0.805941481086     0.258887733223     1.488444174450    12.000000000000
           C         -1.927941481086    -0.400112266777     1.042444174450    12.000000000000
           C         -2.312941481086    -1.644112266777     1.590444174450    12.000000000000
           C         -1.554941481086    -2.237112266777     2.561444174450    12.000000000000
           C         -0.383941481086    -1.607112266777     3.042444174450    12.000000000000
           C          0.431058518914    -2.208112266777     4.047444174450    12.000000000000
           C          1.551058518914    -1.589112266777     4.510444174450    12.000000000000
           C          1.909058518914    -0.315112266777     4.018444174450    12.000000000000
           C          1.150058518914     0.290887733223     3.052444174450    12.000000000000
           C         -0.009941481086    -0.334112266777     2.525444174450    12.000000000000
           H         -0.960941481086     0.189887733223    -4.559555825550     1.007825032070
           H         -0.750941481086    -1.328112266777    -6.323555825550     1.007825032070
           H          0.395058518914    -3.341112266777    -6.050555825550     1.007825032070
           H          1.296058518914    -3.905112266777    -3.956555825550     1.007825032070
           H          2.143058518914    -4.089112266777    -1.504555825550     1.007825032070
           H          2.934058518914    -3.736112266777     0.675444174450     1.007825032070
           H          2.562058518914    -1.696112266777     1.745444174450     1.007825032070
           H          1.288058518914    -0.020112266777     0.718444174450     1.007825032070
           H         -0.668941481086     1.650887733223    -3.622555825550     1.007825032070
           H         -0.258941481086     5.198887733223    -0.260555825550     1.007825032070
           H         -0.423941481086     4.739887733223     2.035444174450     1.007825032070
           H         -2.452941481086    -0.012112266777     0.354444174450     1.007825032070
           H         -3.102941481086    -2.071112266777     1.281444174450     1.007825032070
           H         -1.817941481086    -3.079112266777     2.915444174450     1.007825032070
           H          0.187058518914    -3.056112266777     4.399444174450     1.007825032070
           H          2.092058518914    -2.014112266777     5.166444174450     1.007825032070
           H          2.680058518914     0.123887733223     4.358444174450     1.007825032070
           H          1.404058518914     1.145887733223     2.729444174450     1.007825032070
           H         -2.889941481086     2.549887733223    -3.232555825550     1.007825032070
           H         -2.781941481086     2.093887733223    -1.703555825550     1.007825032070
           H         -2.821941481086     0.993887733223    -2.864555825550     1.007825032070
           H          0.475058518914     3.472887733223    -2.760555825550     1.007825032070
           H         -1.028941481086     4.048887733223    -2.641555825550     1.007825032070
           H         -1.778941481086     4.032887733223     3.746444174450     1.007825032070
           H         -0.237941481086     3.942887733223     4.170444174450     1.007825032070
           H         -1.330941481086     3.061887733223     4.937444174450     1.007825032070

  Running in c1 symmetry.

  Rotational constants: A =      0.00593  B =      0.00398  C =      0.00277 [cm^-1]
  Rotational constants: A =    177.81524  B =    119.30662  C =     83.00798 [MHz]
  Nuclear repulsion = 3631.701513046760283

  Charge       = 0
  Multiplicity = 1
  Electrons    = 238
  Nalpha       = 119
  Nbeta        = 119

  ==> Algorithm <==

  SCF Algorithm Type is DF.
  DIIS enabled.
  MOM disabled.
  Fractional occupation disabled.
  Guess Type is SAD.
  Energy threshold   = 1.00e-08
  Density threshold  = 1.00e-08
  Integral threshold = 0.00e+00

  ==> Primary Basis <==

  Basis Set: CC-PVDZ
    Blend: CC-PVDZ
    Number of shells: 288
    Number of basis function: 620
    Number of Cartesian functions: 655
    Spherical Harmonics?: true
    Max angular momentum: 2

