
    -----------------------------------------------------------------------
          Psi4: An Open-Source Ab Initio Electronic Structure Package
                               Psi4 1.1 release

                         Git: Rev {HEAD} add49b9 


    R. M. Parrish, L. A. Burns, D. G. A. Smith, A. C. Simmonett,
    A. E. DePrince III, E. G. Hohenstein, U. Bozkaya, A. Yu. Sokolov,
    R. Di Remigio, R. M. Richard, J. F. Gonthier, A. M. James,
    H. R. McAlexander, A. Kumar, M. Saitow, X. Wang, B. P. Pritchard,
    P. Verma, H. F. Schaefer III, K. Patkowski, R. A. King, E. F. Valeev,
    F. A. Evangelista, J. M. Turney, T. D. Crawford, and C. D. Sherrill,
    J. Chem. Theory Comput. in press (2017).
    (doi: 10.1021/acs.jctc.7b00174)

    -----------------------------------------------------------------------


    Psi4 started on: Monday, 20 November 2017 10:13AM

    Process ID:  29942
    PSIDATADIR: /home/dslochower/data/applications/psi4conda/share/psi4
    Memory:     500.0 MiB
    Threads:    4
    
  ==> Input File <==

--------------------------------------------------------------------------

memory 8000 mb

molecule  {
  0 1 
  C      1.718   2.544   6.070
  O      0.737   5.835   12.405
  C      1.130   2.832   4.835
  C      1.248   1.919   3.787
  C      1.922   0.711   3.951
  C      2.467   0.380   5.185
  C      2.355   1.290   6.230
  C      2.835   1.182   7.604
  C      3.577   0.181   8.215
  C      4.054   0.399   9.502
  C      3.814   1.610   10.149
  C      3.051   2.607   9.544
  C      2.511   2.376   8.284
  C      1.754   3.269   7.377
  C      1.253   4.503   7.633
  C      0.636   5.387   6.555
  C      -0.892   5.343   6.649
  C      1.198   6.782   6.916
  C      1.289   6.710   8.416
  C      1.282   7.756   9.314
  C      1.169   7.484   10.674
  C      1.027   6.169   11.108
  C      0.542   6.891   13.339
  C      1.106   5.073   10.218
  C      1.278   5.365   8.851
  C      0.807   3.713   10.757
  C      -0.315   3.054   10.311
  C      -0.700   1.810   10.859
  C      0.058   1.217   11.830
  C      1.229   1.847   12.311
  C      2.044   1.246   13.316
  C      3.164   1.865   13.779
  C      3.522   3.139   13.287
  C      2.763   3.745   12.321
  C      1.603   3.120   11.794
  H      0.652   3.644   4.709
  H      0.862   2.126   2.945
  H      2.008   0.113   3.218
  H      2.909   -0.451   5.312
  H      3.756   -0.635   7.764
  H      4.547   -0.282   9.944
  H      4.175   1.758   11.014
  H      2.901   3.434   9.987
  H      0.944   5.105   5.646
  H      1.354   8.653   9.008
  H      1.189   8.194   11.304
  H      -0.840   3.442   9.623
  H      -1.490   1.383   10.550
  H      -0.205   0.375   12.184
  H      1.800   0.398   13.668
  H      3.705   1.440   14.435
  H      4.293   3.578   13.627
  H      3.017   4.600   11.998
  H      -1.277   6.004   6.036
  H      -1.169   5.548   7.565
  H      -1.209   4.448   6.404
  H      2.088   6.927   6.508
  H      0.584   7.503   6.627
  H      -0.166   7.487   13.015
  H      1.375   7.397   13.439
  H      0.282   6.516   14.206
  units Angstrom
}

dih_string = "17 4 2 5 0.001"
set optking fixed_dihedral = $dih_string

optimize('B3LYP/3-21G')
--------------------------------------------------------------------------

  Memory set to   7.451 GiB by Python driver.
gradient() will perform analytic gradient computation.

*** tstart() called on warthog
*** at Mon Nov 20 10:13:26 2017

   => Loading Basis Set <=

    Name: 3-21G
    Role: ORBITAL
    Keyword: BASIS
    atoms 1, 3-35 entry C          line    67 file /home/dslochower/data/applications/psi4conda/share/psi4/basis/3-21g.gbs 
    atoms 2       entry O          line    89 file /home/dslochower/data/applications/psi4conda/share/psi4/basis/3-21g.gbs 
    atoms 36-61   entry H          line    20 file /home/dslochower/data/applications/psi4conda/share/psi4/basis/3-21g.gbs 


         ---------------------------------------------------------
                                   SCF
            by Justin Turney, Rob Parrish, and Andy Simmonett
                              RKS Reference
                        4 Threads,   7629 MiB Core
         ---------------------------------------------------------

  ==> Geometry <==

    Molecular point group: c1
    Full point group: C1

    Geometry (in Angstrom), charge = 0, multiplicity = 1:

       Center              X                  Y                   Z               Mass       
    ------------   -----------------  -----------------  -----------------  -----------------
           C          0.105058518914    -0.910112266777    -3.198555825550    12.000000000000
           O         -0.875941481086     2.380887733223     3.136444174450    15.994914619560
           C         -0.482941481086    -0.622112266777    -4.433555825550    12.000000000000
           C         -0.364941481086    -1.535112266777    -5.481555825550    12.000000000000
           C          0.309058518914    -2.743112266777    -5.317555825550    12.000000000000
           C          0.854058518914    -3.074112266777    -4.083555825550    12.000000000000
           C          0.742058518914    -2.164112266777    -3.038555825550    12.000000000000
           C          1.222058518914    -2.272112266777    -1.664555825550    12.000000000000
           C          1.964058518914    -3.273112266777    -1.053555825550    12.000000000000
           C          2.441058518914    -3.055112266777     0.233444174450    12.000000000000
           C          2.201058518914    -1.844112266777     0.880444174450    12.000000000000
           C          1.438058518914    -0.847112266777     0.275444174450    12.000000000000
           C          0.898058518914    -1.078112266777    -0.984555825550    12.000000000000
           C          0.141058518914    -0.185112266777    -1.891555825550    12.000000000000
           C         -0.359941481086     1.048887733223    -1.635555825550    12.000000000000
           C         -0.976941481086     1.932887733223    -2.713555825550    12.000000000000
           C         -2.504941481086     1.888887733223    -2.619555825550    12.000000000000
           C         -0.414941481086     3.327887733223    -2.352555825550    12.000000000000
           C         -0.323941481086     3.255887733223    -0.852555825550    12.000000000000
           C         -0.330941481086     4.301887733223     0.045444174450    12.000000000000
           C         -0.443941481086     4.029887733223     1.405444174450    12.000000000000
           C         -0.585941481086     2.714887733223     1.839444174450    12.000000000000
           C         -1.070941481086     3.436887733223     4.070444174450    12.000000000000
           C         -0.506941481086     1.618887733223     0.949444174450    12.000000000000
           C         -0.334941481086     1.910887733223    -0.417555825550    12.000000000000
           C         -0.805941481086     0.258887733223     1.488444174450    12.000000000000
           C         -1.927941481086    -0.400112266777     1.042444174450    12.000000000000
           C         -2.312941481086    -1.644112266777     1.590444174450    12.000000000000
           C         -1.554941481086    -2.237112266777     2.561444174450    12.000000000000
           C         -0.383941481086    -1.607112266777     3.042444174450    12.000000000000
           C          0.431058518914    -2.208112266777     4.047444174450    12.000000000000
           C          1.551058518914    -1.589112266777     4.510444174450    12.000000000000
           C          1.909058518914    -0.315112266777     4.018444174450    12.000000000000
           C          1.150058518914     0.290887733223     3.052444174450    12.000000000000
           C         -0.009941481086    -0.334112266777     2.525444174450    12.000000000000
           H         -0.960941481086     0.189887733223    -4.559555825550     1.007825032070
           H         -0.750941481086    -1.328112266777    -6.323555825550     1.007825032070
           H          0.395058518914    -3.341112266777    -6.050555825550     1.007825032070
           H          1.296058518914    -3.905112266777    -3.956555825550     1.007825032070
           H          2.143058518914    -4.089112266777    -1.504555825550     1.007825032070
           H          2.934058518914    -3.736112266777     0.675444174450     1.007825032070
           H          2.562058518914    -1.696112266777     1.745444174450     1.007825032070
           H          1.288058518914    -0.020112266777     0.718444174450     1.007825032070
           H         -0.668941481086     1.650887733223    -3.622555825550     1.007825032070
           H         -0.258941481086     5.198887733223    -0.260555825550     1.007825032070
           H         -0.423941481086     4.739887733223     2.035444174450     1.007825032070
           H         -2.452941481086    -0.012112266777     0.354444174450     1.007825032070
           H         -3.102941481086    -2.071112266777     1.281444174450     1.007825032070
           H         -1.817941481086    -3.079112266777     2.915444174450     1.007825032070
           H          0.187058518914    -3.056112266777     4.399444174450     1.007825032070
           H          2.092058518914    -2.014112266777     5.166444174450     1.007825032070
           H          2.680058518914     0.123887733223     4.358444174450     1.007825032070
           H          1.404058518914     1.145887733223     2.729444174450     1.007825032070
           H         -2.889941481086     2.549887733223    -3.232555825550     1.007825032070
           H         -2.781941481086     2.093887733223    -1.703555825550     1.007825032070
           H         -2.821941481086     0.993887733223    -2.864555825550     1.007825032070
           H          0.475058518914     3.472887733223    -2.760555825550     1.007825032070
           H         -1.028941481086     4.048887733223    -2.641555825550     1.007825032070
           H         -1.778941481086     4.032887733223     3.746444174450     1.007825032070
           H         -0.237941481086     3.942887733223     4.170444174450     1.007825032070
           H         -1.330941481086     3.061887733223     4.937444174450     1.007825032070

  Running in c1 symmetry.

  Rotational constants: A =      0.00593  B =      0.00398  C =      0.00277 [cm^-1]
  Rotational constants: A =    177.81524  B =    119.30662  C =     83.00798 [MHz]
  Nuclear repulsion = 3631.701513046760283

  Charge       = 0
  Multiplicity = 1
  Electrons    = 238
  Nalpha       = 119
  Nbeta        = 119

  ==> Algorithm <==

  SCF Algorithm Type is DF.
  DIIS enabled.
  MOM disabled.
  Fractional occupation disabled.
  Guess Type is SAD.
  Energy threshold   = 1.00e-08
  Density threshold  = 1.00e-08
  Integral threshold = 0.00e+00

  ==> Primary Basis <==

  Basis Set: 3-21G
    Blend: 3-21G
    Number of shells: 227
    Number of basis function: 367
    Number of Cartesian functions: 367
    Spherical Harmonics?: false
    Max angular momentum: 1

  ==> DFT Potential <==

   => B3LYP Composite Functional <= 

    B3LYP Hybrid-GGA Exchange-Correlation Functional (VWN1-RPA)

    P.J. Stephens et. al., J. Phys. Chem., 98, 11623-11627, 1994

    Points   =           5000
    Deriv    =              1
    GGA      =           TRUE
    Meta     =          FALSE

    X_LRC        =          FALSE
    X_Hybrid     =           TRUE
    X_Alpha      =   2.000000E-01
    X_Omega      =   0.000000E+00
    C_LRC        =          FALSE
    C_Hybrid     =          FALSE
    C_Alpha      =   0.000000E+00
    C_Omega      =   0.000000E+00

   => Exchange Functionals <=

    0.8000    B3_X
    0.2000      HF 

   => Correlation Functionals <=

    0.1900 VWN3RPA_C
    0.8100   LYP_C

   => Molecular Quadrature <=

    Radial Scheme    =       TREUTLER
    Pruning Scheme   =           FLAT
    Nuclear Scheme   =       TREUTLER

    BS radius alpha  =              1
    Pruning alpha    =              1
    Radial Points    =             75
    Spherical Points =            302
    Total Points     =        1350306
    Total Blocks     =           1053
    Max Points       =           4982
    Max Functions    =            273

   => Loading Basis Set <=

    Name: (3-21G AUX)
    Role: JKFIT
    Keyword: DF_BASIS_SCF
    atoms 1, 3-35 entry C          line   202 file /home/dslochower/data/applications/psi4conda/share/psi4/basis/def2-svp-jkfit.gbs 
    atoms 2       entry O          line   322 file /home/dslochower/data/applications/psi4conda/share/psi4/basis/def2-svp-jkfit.gbs 
    atoms 36-61   entry H          line    22 file /home/dslochower/data/applications/psi4conda/share/psi4/basis/def2-svp-jkfit.gbs 

  ==> Pre-Iterations <==

   -------------------------------------------------------
    Irrep   Nso     Nmo     Nalpha   Nbeta   Ndocc  Nsocc
   -------------------------------------------------------
     A        367     367       0       0       0       0
   -------------------------------------------------------
    Total     367     367     119     119     119       0
   -------------------------------------------------------

  ==> Integral Setup <==

  ==> DFJK: Density-Fitted J/K Matrices <==

    J tasked:                  Yes
    K tasked:                  Yes
    wK tasked:                  No
    OpenMP threads:              4
    Integrals threads:           4
    Memory (MB):              5722
    Algorithm:                Core
    Integral Cache:           NONE
    Schwarz Cutoff:          1E-12
    Fitting Condition:       1E-12

   => Auxiliary Basis Set <=

  Basis Set: (3-21G AUX)
    Blend: DEF2-SVP-JKFIT
    Number of shells: 1031
    Number of basis function: 3639
    Number of Cartesian functions: 3639
    Spherical Harmonics?: false
    Max angular momentum: 4

  Minimum eigenvalue in the overlap matrix is 8.4373484574E-04.
  Using Symmetric Orthogonalization.

  SCF Guess: Superposition of Atomic Densities via on-the-fly atomic UHF.

  ==> Iterations <==

                           Total Energy        Delta E     RMS |[F,P]|

   @DF-RKS iter   0: -1389.07342516074027   -1.38907e+03   5.91009e-02 
   @DF-RKS iter   1: -1378.03524536487794    1.10382e+01   5.25984e-03 
   @DF-RKS iter   2: -1378.15393661108283   -1.18691e-01   4.62710e-03 DIIS
   @DF-RKS iter   3: -1378.45315766180192   -2.99221e-01   1.97540e-03 DIIS
   @DF-RKS iter   4: -1378.52360471251518   -7.04471e-02   5.26546e-04 DIIS
   @DF-RKS iter   5: -1378.52801563140019   -4.41092e-03   2.17730e-04 DIIS
   @DF-RKS iter   6: -1378.52883621948422   -8.20588e-04   5.59934e-05 DIIS
   @DF-RKS iter   7: -1378.52888078470005   -4.45652e-05   2.86075e-05 DIIS
   @DF-RKS iter   8: -1378.52889508729299   -1.43026e-05   9.55583e-06 DIIS
   @DF-RKS iter   9: -1378.52889678240786   -1.69511e-06   2.25063e-06 DIIS
   @DF-RKS iter  10: -1378.52889686162439   -7.92165e-08   8.87293e-07 DIIS
   @DF-RKS iter  11: -1378.52889687543529   -1.38109e-08   2.43110e-07 DIIS
   @DF-RKS iter  12: -1378.52889687649144   -1.05615e-09   9.64721e-08 DIIS
   @DF-RKS iter  13: -1378.52889687662559   -1.34150e-10   3.29228e-08 DIIS
   @DF-RKS iter  14: -1378.52889687664424   -1.86446e-11   1.36912e-08 DIIS
   @DF-RKS iter  15: -1378.52889687662150    2.27374e-11   3.87093e-09 DIIS

  ==> Post-Iterations <==

    Orbital Energies (a.u.)
    -----------------------

    Doubly Occupied:                                                      

       1A    -19.066424     2A    -10.189029     3A    -10.147626  
       4A    -10.140664     5A    -10.139613     6A    -10.139071  
       7A    -10.133169     8A    -10.130816     9A    -10.126171  
      10A    -10.126105    11A    -10.124903    12A    -10.124586  
      13A    -10.118911    14A    -10.116589    15A    -10.116040  
      16A    -10.114738    17A    -10.113473    18A    -10.112017  
      19A    -10.106789    20A    -10.105896    21A    -10.105520  
      22A    -10.104667    23A    -10.104197    24A    -10.103770  
      25A    -10.103588    26A    -10.102680    27A    -10.102539  
      28A    -10.102501    29A    -10.101444    30A    -10.099722  
      31A    -10.095873    32A    -10.093728    33A    -10.091927  
      34A    -10.088446    35A    -10.073504    36A     -1.071451  
      37A     -0.893315    38A     -0.879281    39A     -0.873692  
      40A     -0.839689    41A     -0.837731    42A     -0.825901  
      43A     -0.801377    44A     -0.795508    45A     -0.767753  
      46A     -0.765790    47A     -0.761352    48A     -0.747140  
      49A     -0.742999    50A     -0.739284    51A     -0.730894  
      52A     -0.714728    53A     -0.713115    54A     -0.692167  
      55A     -0.666898    56A     -0.650343    57A     -0.637353  
      58A     -0.626890    59A     -0.626324    60A     -0.610178  
      61A     -0.601152    62A     -0.594799    63A     -0.585622  
      64A     -0.579949    65A     -0.565860    66A     -0.545536  
      67A     -0.538578    68A     -0.528401    69A     -0.515920  
      70A     -0.510350    71A     -0.509105    72A     -0.506634  
      73A     -0.491864    74A     -0.487388    75A     -0.478161  
      76A     -0.471033    77A     -0.463379    78A     -0.462182  
      79A     -0.458364    80A     -0.453499    81A     -0.451533  
      82A     -0.444839    83A     -0.439211    84A     -0.436205  
      85A     -0.427232    86A     -0.423036    87A     -0.419848  
      88A     -0.418637    89A     -0.417091    90A     -0.412398  
      91A     -0.397575    92A     -0.389844    93A     -0.385748  
      94A     -0.384013    95A     -0.377770    96A     -0.370676  
      97A     -0.365521    98A     -0.364755    99A     -0.357506  
     100A     -0.351301   101A     -0.343433   102A     -0.342437  
     103A     -0.336967   104A     -0.335372   105A     -0.329458  
     106A     -0.323715   107A     -0.318454   108A     -0.315947  
     109A     -0.308381   110A     -0.297125   111A     -0.274876  
     112A     -0.269292   113A     -0.257233   114A     -0.239595  
     115A     -0.232266   116A     -0.218617   117A     -0.203766  
     118A     -0.199433   119A     -0.195628  

    Virtual:                                                              

     120A     -0.053558   121A     -0.030116   122A     -0.007101  
     123A      0.003776   124A      0.007520   125A      0.021816  
     126A      0.029545   127A      0.049937   128A      0.064144  
     129A      0.096929   130A      0.111503   131A      0.124657  
     132A      0.137436   133A      0.144737   134A      0.153895  
     135A      0.162442   136A      0.165801   137A      0.169532  
     138A      0.175321   139A      0.180481   140A      0.188447  
     141A      0.190348   142A      0.193133   143A      0.199170  
     144A      0.202639   145A      0.207561   146A      0.208586  
     147A      0.214110   148A      0.215457   149A      0.217599  
     150A      0.219341   151A      0.223743   152A      0.228483  
     153A      0.232185   154A      0.236449   155A      0.241678  
     156A      0.244119   157A      0.248388   158A      0.251748  
     159A      0.258350   160A      0.261570   161A      0.271206  
     162A      0.272618   163A      0.276361   164A      0.283174  
     165A      0.285632   166A      0.288303   167A      0.294633  
     168A      0.301337   169A      0.302457   170A      0.309032  
     171A      0.314056   172A      0.323996   173A      0.327145  
     174A      0.336480   175A      0.343705   176A      0.348727  
     177A      0.352300   178A      0.362650   179A      0.367063  
     180A      0.372896   181A      0.376881   182A      0.391193  
     183A      0.403136   184A      0.416222   185A      0.429877  
     186A      0.437836   187A      0.438674   188A      0.447797  
     189A      0.469391   190A      0.492953   191A      0.524557  
     192A      0.529274   193A      0.544637   194A      0.583375  
     195A      0.590264   196A      0.600949   197A      0.604377  
     198A      0.614340   199A      0.629859   200A      0.634930  
     201A      0.641701   202A      0.646117   203A      0.656153  
     204A      0.659255   205A      0.663269   206A      0.669360  
     207A      0.679446   208A      0.683778   209A      0.685611  
     210A      0.692866   211A      0.693813   212A      0.697924  
     213A      0.709527   214A      0.710891   215A      0.715117  
     216A      0.720689   217A      0.727578   218A      0.729199  
     219A      0.734973   220A      0.739224   221A      0.742322  
     222A      0.746807   223A      0.753127   224A      0.759795  
     225A      0.769056   226A      0.772153   227A      0.773720  
     228A      0.777960   229A      0.780085   230A      0.789980  
     231A      0.797784   232A      0.803015   233A      0.809951  
     234A      0.814594   235A      0.818286   236A      0.820944  
     237A      0.822447   238A      0.828041   239A      0.830455  
     240A      0.834762   241A      0.838141   242A      0.840584  
     243A      0.852116   244A      0.859703   245A      0.861894  
     246A      0.868490   247A      0.882189   248A      0.885894  
     249A      0.891515   250A      0.895660   251A      0.898125  
     252A      0.906306   253A      0.916600   254A      0.927127  
     255A      0.931922   256A      0.942102   257A      0.955872  
     258A      0.972491   259A      0.982852   260A      0.995497  
     261A      1.010206   262A      1.014781   263A      1.019626  
     264A      1.026889   265A      1.037482   266A      1.049902  
     267A      1.064689   268A      1.077376   269A      1.082909  
     270A      1.085665   271A      1.092316   272A      1.098457  
     273A      1.109855   274A      1.115386   275A      1.120352  
     276A      1.121302   277A      1.129927   278A      1.134449  
     279A      1.145137   280A      1.149283   281A      1.149857  
     282A      1.157771   283A      1.159557   284A      1.162594  
     285A      1.166506   286A      1.184859   287A      1.189516  
     288A      1.191227   289A      1.197681   290A      1.204479  
     291A      1.208082   292A      1.223533   293A      1.230839  
     294A      1.247672   295A      1.252234   296A      1.259639  
     297A      1.270532   298A      1.275722   299A      1.282886  
     300A      1.296970   301A      1.301630   302A      1.313215  
     303A      1.325405   304A      1.330533   305A      1.337939  
     306A      1.343792   307A      1.355420   308A      1.378044  
     309A      1.383364   310A      1.390552   311A      1.418250  
     312A      1.424768   313A      1.435928   314A      1.438151  
     315A      1.452034   316A      1.458954   317A      1.469651  
     318A      1.474783   319A      1.486063   320A      1.525788  
     321A      1.532829   322A      1.544508   323A      1.547163  
     324A      1.560439   325A      1.567476   326A      1.577372  
     327A      1.593858   328A      1.597075   329A      1.617224  
     330A      1.622875   331A      1.644555   332A      1.651923  
     333A      1.675363   334A      1.680244   335A      1.688582  
     336A      1.693522   337A      1.710858   338A      1.712038  
     339A      1.733635   340A      1.752171   341A      1.767529  
     342A      1.783753   343A      1.804455   344A      1.821238  
     345A      1.846118   346A      1.851349   347A      1.891364  
     348A      1.936029   349A      1.948483   350A      1.970978  
     351A      1.982347   352A      2.006210   353A      2.028620  
     354A      2.032142   355A      2.094598   356A      2.156799  
     357A      2.176053   358A      2.212101   359A      2.226643  
     360A      2.237523   361A      2.491726   362A      2.540223  
     363A      2.561990   364A      2.573328   365A      2.585123  
     366A      2.605899   367A      3.463097  

    Final Occupation by Irrep:
              A 
    DOCC [   119 ]

  Energy converged.

  @DF-RKS Final Energy: -1378.52889687662150

   => Energetics <=

    Nuclear Repulsion Energy =           3631.7015130467602830
    One-Electron Energy =               -9090.6108449965631735
    Two-Electron Energy =                4245.1812919398789745
    DFT Exchange-Correlation Energy =    -164.8008568666977283
    Empirical Dispersion Energy =           0.0000000000000000
    PCM Polarization Energy =               0.0000000000000000
    EFP Energy =                            0.0000000000000000
    Total Energy =                      -1378.5288968766212747



Properties will be evaluated at   0.000000,   0.000000,   0.000000 Bohr

Properties computed using the SCF density matrix

  Nuclear Dipole Moment: (a.u.)
     X:    -5.4898      Y:     8.3531      Z:    -0.2160

  Electronic Dipole Moment: (a.u.)
     X:     5.0617      Y:    -7.2710      Z:     0.8390

  Dipole Moment: (a.u.)
     X:    -0.4281      Y:     1.0821      Z:     0.6231     Total:     1.3200

  Dipole Moment: (Debye)
     X:    -1.0881      Y:     2.7504      Z:     1.5837     Total:     3.3551


*** tstop() called on warthog at Mon Nov 20 10:24:12 2017
Module time:
	user time   =     907.17 seconds =      15.12 minutes
	system time =       8.48 seconds =       0.14 minutes
	total time  =        646 seconds =      10.77 minutes
Total time:
	user time   =     907.17 seconds =      15.12 minutes
	system time =       8.48 seconds =       0.14 minutes
	total time  =        646 seconds =      10.77 minutes

*** tstart() called on warthog
*** at Mon Nov 20 10:24:12 2017


         ------------------------------------------------------------
                                   SCF GRAD                          
                          Rob Parrish, Justin Turney,                
                       Andy Simmonett, and Alex Sokolov              
         ------------------------------------------------------------

  ==> Geometry <==

    Molecular point group: c1
    Full point group: C1

    Geometry (in Angstrom), charge = 0, multiplicity = 1:

       Center              X                  Y                   Z               Mass       
    ------------   -----------------  -----------------  -----------------  -----------------
           C          0.105058518914    -0.910112266777    -3.198555825550    12.000000000000
           O         -0.875941481086     2.380887733223     3.136444174450    15.994914619560
           C         -0.482941481086    -0.622112266777    -4.433555825550    12.000000000000
           C         -0.364941481086    -1.535112266777    -5.481555825550    12.000000000000
           C          0.309058518914    -2.743112266777    -5.317555825550    12.000000000000
           C          0.854058518914    -3.074112266777    -4.083555825550    12.000000000000
           C          0.742058518914    -2.164112266777    -3.038555825550    12.000000000000
           C          1.222058518914    -2.272112266777    -1.664555825550    12.000000000000
           C          1.964058518914    -3.273112266777    -1.053555825550    12.000000000000
           C          2.441058518914    -3.055112266777     0.233444174450    12.000000000000
           C          2.201058518914    -1.844112266777     0.880444174450    12.000000000000
           C          1.438058518914    -0.847112266777     0.275444174450    12.000000000000
           C          0.898058518914    -1.078112266777    -0.984555825550    12.000000000000
           C          0.141058518914    -0.185112266777    -1.891555825550    12.000000000000
           C         -0.359941481086     1.048887733223    -1.635555825550    12.000000000000
           C         -0.976941481086     1.932887733223    -2.713555825550    12.000000000000
           C         -2.504941481086     1.888887733223    -2.619555825550    12.000000000000
           C         -0.414941481086     3.327887733223    -2.352555825550    12.000000000000
           C         -0.323941481086     3.255887733223    -0.852555825550    12.000000000000
           C         -0.330941481086     4.301887733223     0.045444174450    12.000000000000
           C         -0.443941481086     4.029887733223     1.405444174450    12.000000000000
           C         -0.585941481086     2.714887733223     1.839444174450    12.000000000000
           C         -1.070941481086     3.436887733223     4.070444174450    12.000000000000
           C         -0.506941481086     1.618887733223     0.949444174450    12.000000000000
           C         -0.334941481086     1.910887733223    -0.417555825550    12.000000000000
           C         -0.805941481086     0.258887733223     1.488444174450    12.000000000000
           C         -1.927941481086    -0.400112266777     1.042444174450    12.000000000000
           C         -2.312941481086    -1.644112266777     1.590444174450    12.000000000000
           C         -1.554941481086    -2.237112266777     2.561444174450    12.000000000000
           C         -0.383941481086    -1.607112266777     3.042444174450    12.000000000000
           C          0.431058518914    -2.208112266777     4.047444174450    12.000000000000
           C          1.551058518914    -1.589112266777     4.510444174450    12.000000000000
           C          1.909058518914    -0.315112266777     4.018444174450    12.000000000000
           C          1.150058518914     0.290887733223     3.052444174450    12.000000000000
           C         -0.009941481086    -0.334112266777     2.525444174450    12.000000000000
           H         -0.960941481086     0.189887733223    -4.559555825550     1.007825032070
           H         -0.750941481086    -1.328112266777    -6.323555825550     1.007825032070
           H          0.395058518914    -3.341112266777    -6.050555825550     1.007825032070
           H          1.296058518914    -3.905112266777    -3.956555825550     1.007825032070
           H          2.143058518914    -4.089112266777    -1.504555825550     1.007825032070
           H          2.934058518914    -3.736112266777     0.675444174450     1.007825032070
           H          2.562058518914    -1.696112266777     1.745444174450     1.007825032070
           H          1.288058518914    -0.020112266777     0.718444174450     1.007825032070
           H         -0.668941481086     1.650887733223    -3.622555825550     1.007825032070
           H         -0.258941481086     5.198887733223    -0.260555825550     1.007825032070
           H         -0.423941481086     4.739887733223     2.035444174450     1.007825032070
           H         -2.452941481086    -0.012112266777     0.354444174450     1.007825032070
           H         -3.102941481086    -2.071112266777     1.281444174450     1.007825032070
           H         -1.817941481086    -3.079112266777     2.915444174450     1.007825032070
           H          0.187058518914    -3.056112266777     4.399444174450     1.007825032070
           H          2.092058518914    -2.014112266777     5.166444174450     1.007825032070
           H          2.680058518914     0.123887733223     4.358444174450     1.007825032070
           H          1.404058518914     1.145887733223     2.729444174450     1.007825032070
           H         -2.889941481086     2.549887733223    -3.232555825550     1.007825032070
           H         -2.781941481086     2.093887733223    -1.703555825550     1.007825032070
           H         -2.821941481086     0.993887733223    -2.864555825550     1.007825032070
           H          0.475058518914     3.472887733223    -2.760555825550     1.007825032070
           H         -1.028941481086     4.048887733223    -2.641555825550     1.007825032070
           H         -1.778941481086     4.032887733223     3.746444174450     1.007825032070
           H         -0.237941481086     3.942887733223     4.170444174450     1.007825032070
           H         -1.330941481086     3.061887733223     4.937444174450     1.007825032070

  Nuclear repulsion = 3631.701513046759828

  ==> Basis Set <==

  Basis Set: 3-21G
    Blend: 3-21G
    Number of shells: 227
    Number of basis function: 367
    Number of Cartesian functions: 367
    Spherical Harmonics?: false
    Max angular momentum: 1

  ==> DFJKGrad: Density-Fitted SCF Gradients <==

    Gradient:                    1
    J tasked:                  Yes
    K tasked:                  Yes
    wK tasked:                  No
    OpenMP threads:              4
    Integrals threads:           4
    Memory (MB):              5722
    Schwarz Cutoff:          0E+00
    Fitting Condition:       1E-12

   => Auxiliary Basis Set <=

  Basis Set: (3-21G AUX)
    Blend: DEF2-SVP-JKFIT
    Number of shells: 1031
    Number of basis function: 3639
    Number of Cartesian functions: 3639
    Spherical Harmonics?: false
    Max angular momentum: 4

  ==> DFT Potential <==

   => B3LYP Composite Functional <= 

    B3LYP Hybrid-GGA Exchange-Correlation Functional (VWN1-RPA)

    P.J. Stephens et. al., J. Phys. Chem., 98, 11623-11627, 1994

    Points   =           5000
    Deriv    =              1
    GGA      =           TRUE
    Meta     =          FALSE

    X_LRC        =          FALSE
    X_Hybrid     =           TRUE
    X_Alpha      =   2.000000E-01
    X_Omega      =   0.000000E+00
    C_LRC        =          FALSE
    C_Hybrid     =          FALSE
    C_Alpha      =   0.000000E+00
    C_Omega      =   0.000000E+00

   => Exchange Functionals <=

    0.8000    B3_X
    0.2000      HF 

   => Correlation Functionals <=

    0.1900 VWN3RPA_C
    0.8100   LYP_C

   => Molecular Quadrature <=

    Radial Scheme    =       TREUTLER
    Pruning Scheme   =           FLAT
    Nuclear Scheme   =       TREUTLER

    BS radius alpha  =              1
    Pruning alpha    =              1
    Radial Points    =             75
    Spherical Points =            302
    Total Points     =        1350306
    Total Blocks     =           1053
    Max Points       =           4982
    Max Functions    =            273


  -Total Gradient:
     Atom            X                  Y                   Z
    ------   -----------------  -----------------  -----------------
       1        0.007077942192     0.004772391807     0.002890333576
       2       -0.003106633819     0.025811617821     0.002407636027
       3       -0.066575523712     0.108481612246    -0.022857325166
       4       -0.053682999232     0.027731441901    -0.116547903350
       5        0.012642713201    -0.084391556576    -0.100437312533
       6        0.060768147969    -0.117994098956     0.013190502576
       7        0.000394314022     0.003708458114    -0.000502461678
       8       -0.001497149235     0.000511393456    -0.000075516677
       9        0.027950914461    -0.113772576765    -0.058843917193
      10        0.069808424787    -0.095248066146     0.058210487966
      11        0.046686190963     0.022315624587     0.122690321668
      12       -0.021361186476     0.110110952550     0.067544653315
      13       -0.007835581947    -0.002067765299     0.000015592552
      14       -0.001280379522    -0.002392395898    -0.003317641287
      15        0.000471447576     0.003925687717    -0.002092390751
      16        0.008348676572    -0.017410158939    -0.059815478004
      17       -0.092374388103    -0.003092003620     0.007785792422
      18        0.028009692157     0.065097918777    -0.058215587097
      19       -0.000091440067     0.002767591857    -0.006308364906
      20        0.006217761431     0.124046059396    -0.038543516772
      21       -0.001352030095     0.101116888703     0.083312780907
      22        0.002641879703     0.004258218031     0.003931744704
      23       -0.011757111113     0.049514552141     0.053518349726
      24       -0.002028095271     0.000865223708     0.005336275536
      25        0.005012171744     0.006405476793    -0.003326493369
      26        0.003621422126    -0.004706217019    -0.008858235352
      27       -0.073656695955     0.056275770274    -0.095690005760
      28       -0.110983143439    -0.062037440991    -0.040012135594
      29       -0.036321883112    -0.113380763600     0.047311968145
      30       -0.003731342683    -0.002407534249    -0.004525254632
      31       -0.023616279175    -0.114015635605     0.054474675857
      32        0.068199721330    -0.062506880588     0.087143088572
      33        0.106274687569     0.061907690651     0.047941359929
      34        0.038454926829     0.115605454416    -0.047698059318
      35        0.006355405121    -0.002612982811    -0.006612928026
      36        0.068377366064    -0.111951903093     0.022081803296
      37        0.057287576858    -0.031218956395     0.124351367729
      38       -0.011489901045     0.087838071777     0.107169182610
      39       -0.064863212522     0.121593399006    -0.018732316717
      40       -0.027702518155     0.119681561712     0.066843570448
      41       -0.073414659121     0.099176041282    -0.064558959252
      42       -0.051193005694    -0.022477076282    -0.127187093047
      43        0.013580340432    -0.112011229482    -0.055170505813
      44       -0.023200485185     0.017854896993     0.068686641078
      45       -0.008335734923    -0.130976033297     0.043576302861
      46        0.000433330589    -0.104143782813    -0.090085111468
      47        0.078269175607    -0.058123338904     0.101163673135
      48        0.115636086832     0.061664837163     0.046766362943
      49        0.036481326410     0.122721446516    -0.053086440052
      50        0.037849834267     0.125012598917    -0.049217942850
      51       -0.078551584948     0.060591330786    -0.096082905872
      52       -0.112950944019    -0.063724928876    -0.049594707316
      53       -0.035665815818    -0.125905118367     0.048640167783
      54        0.042115871205    -0.071563832464     0.066880179470
      55        0.029691053881    -0.022793677233    -0.100295791852
      56        0.033996975295     0.096323840704     0.025807995252
      57       -0.086018419813    -0.010090801003     0.039969732723
      58        0.058382266891    -0.068218542834     0.027314529425
      59        0.077277151153    -0.066642311543     0.032857577862
      60       -0.090359918498    -0.057756946856    -0.013764347058
      61        0.026664533511     0.047906422651    -0.087822800005


*** tstop() called on warthog at Mon Nov 20 10:27:16 2017
Module time:
	user time   =     288.96 seconds =       4.82 minutes
	system time =       4.64 seconds =       0.08 minutes
	total time  =        184 seconds =       3.07 minutes
Total time:
	user time   =    1196.13 seconds =      19.94 minutes
	system time =      13.12 seconds =       0.22 minutes
	total time  =        830 seconds =      13.83 minutes

			-----------------------------------------
			 OPTKING 2.0: for geometry optimizations 
			  - R.A. King,  Bethel University        
			-----------------------------------------

	Internal coordinates to be generated automatically.
	Detected frag 1 with atoms:  1 2 3 4 5 6 7 8 9 10 11 12 13 14 15 16 17 18 19 20
	 21 22 23 24 25 26 27 28 29 30 31 32 33 34 35 36 37 38 39 40
	 41 42 43 44 45 46 47 48 49 50 51 52 53 54 55 56 57 58 59 60
	 61
	---Fragment 1 Bond Connectivity---
	 1 : 3 7 14
	 2 : 22 23
	 3 : 1 4 36
	 4 : 3 5 37
	 5 : 4 6 38
	 6 : 5 7 39
	 7 : 1 6 8
	 8 : 7 9 13
	 9 : 8 10 40
	 10 : 9 11 41
	 11 : 10 12 42
	 12 : 11 13 43
	 13 : 8 12 14
	 14 : 1 13 15
	 15 : 14 16 25
	 16 : 15 17 18 44
	 17 : 16 54 55 56
	 18 : 16 19 57 58
	 19 : 18 20 25
	 20 : 19 21 45
	 21 : 20 22 46
	 22 : 2 21 24
	 23 : 2 59 60 61
	 24 : 22 25 26
	 25 : 15 19 24
	 26 : 24 27 35
	 27 : 26 28 47
	 28 : 27 29 48
	 29 : 28 30 49
	 30 : 29 31 35
	 31 : 30 32 50
	 32 : 31 33 51
	 33 : 32 34 52
	 34 : 33 35 53
	 35 : 26 30 34
	 36 : 3
	 37 : 4
	 38 : 5
	 39 : 6
	 40 : 9
	 41 : 10
	 42 : 11
	 43 : 12
	 44 : 16
	 45 : 20
	 46 : 21
	 47 : 27
	 48 : 28
	 49 : 29
	 50 : 31
	 51 : 32
	 52 : 33
	 53 : 34
	 54 : 17
	 55 : 17
	 56 : 17
	 57 : 18
	 58 : 18
	 59 : 23
	 60 : 23
	 61 : 23

	Assuming in current code that numbering for constraints corresponds to unified fragment.
	Fixed dihedral atom list: 
	    17     4     2     5
	---Fragment 1 Geometry and Gradient---
	 C           0.1985318287       -1.7198629344       -6.0443945310
	 O          -1.6552895077        4.4992257689        5.9270205208
	 C          -0.9126271375       -1.1756218081       -8.3782063051
	 C          -0.6896394538       -2.9009417674      -10.3586392924
	 C           0.5840359598       -5.1837309360      -10.0487242066
	 C           1.6139367022       -5.8092302860       -7.7168021586
	 C           1.4022873753       -4.0895795050       -5.7420383498
	 C           2.3093559191       -4.2936699274       -3.1455546432
	 C           3.7115327097       -6.1852857864       -1.9909319760
	 C           4.6129320751       -5.7733254894        0.4411455570
	 C           4.1593978032       -3.4848671425        1.6637983650
	 C           2.7175367638       -1.6008101880        0.5205140546
	 C           1.6970846521       -2.0373369247       -1.8605408728
	 C           0.2665619695       -0.3498114880       -3.5745224754
	 C          -0.6801908231        1.9821105599       -3.0907525853
	 C          -1.8461518471        3.6526284614       -5.1278773566
	 C          -4.7336533782        3.5694805116       -4.9502431001
	 C          -0.7841257604        6.2887964168       -4.4456862226
	 C          -0.6121606823        6.1527361352       -1.6110970233
	 C          -0.6253887653        8.1293896702        0.0858770440
	 C          -0.8389278183        7.6153841621        2.6559045848
	 C          -1.1072689291        5.1303942973        3.4760457264
	 C          -2.0237861036        6.4947765653        7.6920247289
	 C          -0.9579805647        3.0592544557        1.7941894682
	 C          -0.6329476698        3.6110544865       -0.7890661555
	 C          -1.5230086784        0.4892269150        2.8127518538
	 C          -3.6432813995       -0.7561026066        1.9699339985
	 C          -4.3708259606       -3.1069219159        3.0055039194
	 C          -2.9384135519       -4.2275295127        4.8404279944
	 C          -0.7255442503       -3.0370020490        5.7493862643
	 C           0.8145825480       -4.1727274549        7.6485610279
	 C           2.9310758168       -3.0029869786        8.5235042274
	 C           3.6075977724       -0.5954758853        7.5937589700
	 C           2.1732956375        0.5496981512        5.7682835256
	 C          -0.0187866766       -0.6313806818        4.7723978536
	 H          -1.8159162290        0.3588358118       -8.6163117979
	 H          -1.4190737411       -2.5097684579      -11.9497886963
	 H           0.7465524072       -6.3137871634      -11.4338934620
	 H           2.4491956529       -7.3795927024       -7.4768069398
	 H           4.0497936875       -7.7273023108       -2.8431984619
	 H           5.5445670586       -7.0602289859        1.2764045078
	 H           4.8415889372       -3.2051876748        3.2984114700
	 H           2.4340778439       -0.0380066761        1.3576627315
	 H          -1.2641161982        3.1197256919       -6.8456384114
	 H          -0.4893284837        9.8244740114       -0.4923791526
	 H          -0.8011332956        8.9570897164        3.8464320485
	 H          -4.6353876192       -0.0228888671        0.6698024191
	 H          -5.8637096056       -3.9138349747        2.4215785443
	 H          -3.4354115249       -5.8186789166        5.5093910454
	 H           0.3534893716       -5.7752152156        8.3137446266
	 H           3.9534176547       -3.8061205851        9.7631645706
	 H           5.0645766209        0.2341138870        8.2362658552
	 H           2.6532860753        2.1654139948        5.1579019847
	 H          -5.4611979393        4.8185894854       -6.1086452196
	 H          -5.2571075170        3.9568743688       -3.2192539624
	 H          -5.3326965623        1.8781756226       -5.4132260027
	 H           0.8977304978        6.5628067060       -5.2166944848
	 H          -1.9444176060        7.6512889586       -4.9918170750
	 H          -3.3617122057        7.6210533405        7.0797534619
	 H          -0.4496442349        7.4509779885        7.8809973422
	 H          -2.5151148981        5.7861292654        9.3304172861
	             0.0070779422        0.0047723918        0.0028903336
	            -0.0031066338        0.0258116178        0.0024076360
	            -0.0665755237        0.1084816122       -0.0228573252
	            -0.0536829992        0.0277314419       -0.1165479033
	             0.0126427132       -0.0843915566       -0.1004373125
	             0.0607681480       -0.1179940990        0.0131905026
	             0.0003943140        0.0037084581       -0.0005024617
	            -0.0014971492        0.0005113935       -0.0000755167
	             0.0279509145       -0.1137725768       -0.0588439172
	             0.0698084248       -0.0952480661        0.0582104880
	             0.0466861910        0.0223156246        0.1226903217
	            -0.0213611865        0.1101109526        0.0675446533
	            -0.0078355819       -0.0020677653        0.0000155926
	            -0.0012803795       -0.0023923959       -0.0033176413
	             0.0004714476        0.0039256877       -0.0020923908
	             0.0083486766       -0.0174101589       -0.0598154780
	            -0.0923743881       -0.0030920036        0.0077857924
	             0.0280096922        0.0650979188       -0.0582155871
	            -0.0000914401        0.0027675919       -0.0063083649
	             0.0062177614        0.1240460594       -0.0385435168
	            -0.0013520301        0.1011168887        0.0833127809
	             0.0026418797        0.0042582180        0.0039317447
	            -0.0117571111        0.0495145521        0.0535183497
	            -0.0020280953        0.0008652237        0.0053362755
	             0.0050121717        0.0064054768       -0.0033264934
	             0.0036214221       -0.0047062170       -0.0088582354
	            -0.0736566960        0.0562757703       -0.0956900058
	            -0.1109831434       -0.0620374410       -0.0400121356
	            -0.0363218831       -0.1133807636        0.0473119681
	            -0.0037313427       -0.0024075342       -0.0045252546
	            -0.0236162792       -0.1140156356        0.0544746759
	             0.0681997213       -0.0625068806        0.0871430886
	             0.1062746876        0.0619076907        0.0479413599
	             0.0384549268        0.1156054544       -0.0476980593
	             0.0063554051       -0.0026129828       -0.0066129280
	             0.0683773661       -0.1119519031        0.0220818033
	             0.0572875769       -0.0312189564        0.1243513677
	            -0.0114899010        0.0878380718        0.1071691826
	            -0.0648632125        0.1215933990       -0.0187323167
	            -0.0277025182        0.1196815617        0.0668435704
	            -0.0734146591        0.0991760413       -0.0645589593
	            -0.0511930057       -0.0224770763       -0.1271870930
	             0.0135803404       -0.1120112295       -0.0551705058
	            -0.0232004852        0.0178548970        0.0686866411
	            -0.0083357349       -0.1309760333        0.0435763029
	             0.0004333306       -0.1041437828       -0.0900851115
	             0.0782691756       -0.0581233389        0.1011636731
	             0.1156360868        0.0616648372        0.0467663629
	             0.0364813264        0.1227214465       -0.0530864401
	             0.0378498343        0.1250125989       -0.0492179429
	            -0.0785515849        0.0605913308       -0.0960829059
	            -0.1129509440       -0.0637249289       -0.0495947073
	            -0.0356658158       -0.1259051184        0.0486401678
	             0.0421158712       -0.0715638325        0.0668801795
	             0.0296910539       -0.0227936772       -0.1002957919
	             0.0339969753        0.0963238407        0.0258079953
	            -0.0860184198       -0.0100908010        0.0399697327
	             0.0583822669       -0.0682185428        0.0273145294
	             0.0772771512       -0.0666423115        0.0328575779
	            -0.0903599185       -0.0577569469       -0.0137643471
	             0.0266645335        0.0479064227       -0.0878228000

	Previous optimization step data not found.  Starting new optimization.

	---Fragment 1 Intrafragment Coordinates---
	 - Coordinate -           - BOHR/RAD -       - ANG/DEG -
	 R(1,3)           =         2.641505	       1.397824
	 R(1,7)           =         2.675071	       1.415586
	 R(1,14)          =         2.825232	       1.495048
	 R(2,22)          =         2.589590	       1.370352
	 R(2,23)          =         2.689471	       1.423207
	 R(3,4)           =         2.636014	       1.394918
	 R(3,36)          =         1.796437	       0.950633
	 R(4,5)           =         2.632380	       1.392995
	 R(4,37)          =         1.793557	       0.949110
	 R(5,6)           =         2.624844	       1.389008
	 R(5,38)          =         1.795030	       0.949889
	 R(6,7)           =         2.627106	       1.390205
	 R(6,39)          =         1.794796	       0.949765
	 R(7,8)           =         2.757926	       1.459431
	 R(8,9)           =         2.622492	       1.387763
	 R(8,13)          =         2.667803	       1.411741
	 R(9,10)          =         2.626258	       1.389756
	 R(9,40)          =         1.794044	       0.949367
	 R(10,11)         =         2.633935	       1.393818
	 R(10,41)         =         1.794916	       0.949828
	 R(11,12)         =         2.633578	       1.393629
	 R(11,42)         =         1.793200	       0.948920
	 R(12,13)         =         2.627033	       1.390166
	 R(12,43)         =         1.795417	       0.950094
	 R(13,14)         =         2.798548	       1.480928
	 R(14,15)         =         2.562857	       1.356205
	 R(15,16)         =         2.880967	       1.524542
	 R(15,25)         =         2.820186	       1.492378
	 R(16,17)         =         2.894155	       1.531521
	 R(16,18)         =         2.922784	       1.546671
	 R(16,44)         =         1.890358	       1.000334
	 R(17,54)         =         1.852428	       0.980263
	 R(17,55)         =         1.849433	       0.978678
	 R(17,56)         =         1.853029	       0.980581
	 R(18,19)         =         2.843058	       1.504482
	 R(18,57)         =         1.870341	       0.989742
	 R(18,58)         =         1.871075	       0.990130
	 R(19,20)         =         2.605198	       1.378611
	 R(19,25)         =         2.671388	       1.413638
	 R(20,21)         =         2.629609	       1.391529
	 R(20,45)         =         1.796164	       0.950489
	 R(21,22)         =         2.630554	       1.392029
	 R(21,46)         =         1.794145	       0.949421
	 R(22,24)         =         2.672180	       1.414057
	 R(23,59)         =         1.852949	       0.980539
	 R(23,60)         =         1.851474	       0.979758
	 R(23,61)         =         1.851463	       0.979752
	 R(24,25)         =         2.661454	       1.408381
	 R(24,26)         =         2.821660	       1.493158
	 R(26,27)         =         2.599374	       1.375529
	 R(26,35)         =         2.712685	       1.435491
	 R(27,28)         =         2.669846	       1.412822
	 R(27,47)         =         1.792267	       0.948427
	 R(28,29)         =         2.583508	       1.367133
	 R(28,48)         =         1.794653	       0.949689
	 R(29,30)         =         2.672144	       1.414037
	 R(29,49)         =         1.796183	       0.950499
	 R(30,31)         =         2.696058	       1.426692
	 R(30,35)         =         2.690916	       1.423971
	 R(31,32)         =         2.571646	       1.360856
	 R(31,50)         =         1.795284	       0.950023
	 R(32,33)         =         2.667999	       1.411844
	 R(32,51)         =         1.796375	       0.950601
	 R(33,34)         =         2.588630	       1.369844
	 R(33,52)         =         1.795500	       0.950138
	 R(34,35)         =         2.681783	       1.419138
	 R(34,53)         =         1.792622	       0.948615
	 B(1,3,4)         =         2.086729	     119.560774
	 B(1,3,36)        =         2.099722	     120.305208
	 B(1,7,6)         =         2.130756	     122.083352
	 B(1,7,8)         =         1.896489	     108.660805
	 B(1,14,13)       =         1.828967	     104.792079
	 B(1,14,15)       =         2.211003	     126.681166
	 B(2,22,21)       =         2.149477	     123.155960
	 B(2,22,24)       =         2.002717	     114.747252
	 B(2,23,59)       =         1.910367	     109.455994
	 B(2,23,60)       =         1.911015	     109.493093
	 B(2,23,61)       =         1.910391	     109.457340
	 B(3,1,7)         =         2.061977	     118.142594
	 B(3,1,14)        =         2.322114	     133.047344
	 B(3,4,5)         =         2.117734	     121.337236
	 B(3,4,37)        =         2.082151	     119.298449
	 B(4,3,36)        =         2.096734	     120.134000
	 B(4,5,6)         =         2.095657	     120.072293
	 B(4,5,38)        =         2.093122	     119.927055
	 B(5,4,37)        =         2.083300	     119.364270
	 B(5,6,7)         =         2.071686	     118.698854
	 B(5,6,39)        =         2.105859	     120.656819
	 B(6,5,38)        =         2.094406	     120.000629
	 B(6,7,8)         =         2.255895	     129.253242
	 B(7,1,14)        =         1.896456	     108.658909
	 B(7,6,39)        =         2.105639	     120.644222
	 B(7,8,9)         =         2.270163	     130.070773
	 B(7,8,13)        =         1.891683	     108.385465
	 B(8,9,10)        =         2.069277	     118.560858
	 B(8,9,40)        =         2.107879	     120.772577
	 B(8,13,12)       =         2.080551	     119.206796
	 B(8,13,14)       =         1.909545	     109.408872
	 B(9,8,13)        =         2.118459	     121.378758
	 B(9,10,11)       =         2.102565	     120.468107
	 B(9,10,41)       =         2.090500	     119.776822
	 B(10,9,40)       =         2.106028	     120.666542
	 B(10,11,12)      =         2.111012	     120.952104
	 B(10,11,42)      =         2.086496	     119.547412
	 B(11,10,41)      =         2.090120	     119.755071
	 B(11,12,13)      =         2.079750	     119.160891
	 B(11,12,43)      =         2.102187	     120.446446
	 B(12,11,42)      =         2.085677	     119.500482
	 B(12,13,14)      =         2.282953	     130.803568
	 B(13,12,43)      =         2.101248	     120.392647
	 B(13,14,15)      =         2.241948	     128.454171
	 B(14,15,16)      =         2.145552	     122.931085
	 B(14,15,25)      =         2.309627	     132.331886
	 B(15,16,17)      =         1.921675	     110.103865
	 B(15,16,18)      =         1.783280	     102.174435
	 B(15,16,44)      =         1.933138	     110.760675
	 B(15,25,19)      =         1.873964	     107.370234
	 B(15,25,24)      =         2.305499	     132.095385
	 B(16,15,25)      =         1.822398	     104.415687
	 B(16,17,54)      =         1.911441	     109.517498
	 B(16,17,55)      =         1.911142	     109.500345
	 B(16,17,56)      =         1.910727	     109.476587
	 B(16,18,19)      =         1.783930	     102.211649
	 B(16,18,57)      =         1.941921	     111.263862
	 B(16,18,58)      =         1.942631	     111.304541
	 B(17,16,18)      =         1.954236	     111.969469
	 B(17,16,44)      =         1.933564	     110.785055
	 B(18,16,44)      =         1.933151	     110.761413
	 B(18,19,20)      =         2.230423	     127.793824
	 B(18,19,25)      =         1.930357	     110.601298
	 B(19,18,57)      =         1.942949	     111.322770
	 B(19,18,58)      =         1.942678	     111.307226
	 B(19,20,21)      =         2.081424	     119.256811
	 B(19,20,45)      =         2.101276	     120.394238
	 B(19,25,24)      =         2.090807	     119.794414
	 B(20,19,25)      =         2.119305	     121.427213
	 B(20,21,22)      =         2.091680	     119.844429
	 B(20,21,46)      =         2.095135	     120.042407
	 B(21,20,45)      =         2.100485	     120.348943
	 B(21,22,24)      =         2.129700	     122.022810
	 B(22,2,23)       =         2.059277	     117.987900
	 B(22,21,46)      =         2.096370	     120.113162
	 B(22,24,25)      =         2.045448	     117.195515
	 B(22,24,26)      =         2.057334	     117.876570
	 B(24,26,27)      =         2.074484	     118.859171
	 B(24,26,35)      =         2.124677	     121.735040
	 B(25,24,26)      =         2.169618	     124.309956
	 B(26,27,28)      =         2.115722	     121.221920
	 B(26,27,47)      =         2.083728	     119.388837
	 B(26,35,30)      =         2.078238	     119.074243
	 B(26,35,34)      =         2.140748	     122.655822
	 B(27,26,35)      =         2.081314	     119.250503
	 B(27,28,29)      =         2.101711	     120.419185
	 B(27,28,48)      =         2.090213	     119.760408
	 B(28,27,47)      =         2.083735	     119.389241
	 B(28,29,30)      =         2.103072	     120.497145
	 B(28,29,49)      =         2.089033	     119.692768
	 B(29,28,48)      =         2.091260	     119.820382
	 B(29,30,31)      =         2.123515	     121.668473
	 B(29,30,35)      =         2.085525	     119.491768
	 B(30,29,49)      =         2.091080	     119.810085
	 B(30,31,32)      =         2.115540	     121.211541
	 B(30,31,50)      =         2.083230	     119.360297
	 B(30,35,34)      =         2.064142	     118.266603
	 B(31,30,35)      =         2.074087	     118.836447
	 B(31,32,33)      =         2.095063	     120.038279
	 B(31,32,51)      =         2.094179	     119.987593
	 B(32,31,50)      =         2.084415	     119.428161
	 B(32,33,34)      =         2.099532	     120.294314
	 B(32,33,52)      =         2.092073	     119.866960
	 B(33,32,51)      =         2.093942	     119.974067
	 B(33,34,35)      =         2.117583	     121.328551
	 B(33,34,53)      =         2.083442	     119.372419
	 B(34,33,52)      =         2.091580	     119.838719
	 B(35,34,53)      =         2.082160	     119.299007
	 B(54,17,55)      =         1.910159	     109.444042
	 B(54,17,56)      =         1.909481	     109.405231
	 B(55,17,56)      =         1.910849	     109.483576
	 B(57,18,58)      =         1.907761	     109.306671
	 B(59,23,60)      =         1.911028	     109.493864
	 B(59,23,61)      =         1.910743	     109.477532
	 B(60,23,61)      =         1.910254	     109.449497
	 D(1,3,4,5)       =         0.019580	       1.121836
	 D(1,3,4,37)      =        -3.120654	    -178.800288
	 D(1,7,6,5)       =        -0.012439	      -0.712711
	 D(1,7,6,39)      =         3.127115	     179.170489
	 D(1,7,8,9)       =        -3.073870	    -176.119761
	 D(1,7,8,13)      =        -0.014553	      -0.833802
	 D(1,14,13,8)     =        -0.054787	      -3.139048
	 D(1,14,13,12)    =         2.929435	     167.844246
	 D(1,14,15,16)    =        -0.070147	      -4.019151
	 D(1,14,15,25)    =        -3.079371	    -176.434935
	 D(2,22,21,20)    =        -2.988654	    -171.237258
	 D(2,22,21,46)    =         0.153224	       8.779076
	 D(2,22,24,25)    =         3.041459	     174.262753
	 D(2,22,24,26)    =         0.050267	       2.880108
	 D(3,1,7,6)       =         0.056879	       3.258928
	 D(3,1,7,8)       =        -3.094072	    -177.277280
	 D(3,1,14,13)     =         3.105049	     177.906193
	 D(3,1,14,15)     =        -0.087121	      -4.991688
	 D(3,4,5,6)       =         0.026119	       1.496495
	 D(3,4,5,38)      =        -3.116444	    -178.559102
	 D(4,3,1,7)       =        -0.059284	      -3.396710
	 D(4,3,1,14)      =        -3.112791	    -178.349773
	 D(4,5,6,7)       =        -0.029290	      -1.678197
	 D(4,5,6,39)      =         3.114341	     178.438618
	 D(5,4,3,36)      =        -3.121169	    -178.829836
	 D(5,6,7,8)       =         3.140604	     179.943346
	 D(6,5,4,37)      =        -3.116834	    -178.581431
	 D(6,7,1,14)      =         3.130564	     179.368111
	 D(6,7,8,9)       =         0.057483	       3.293537
	 D(6,7,8,13)      =         3.116800	     178.579495
	 D(7,1,3,36)      =         3.081464	     176.554878
	 D(7,1,14,13)     =         0.045423	       2.602531
	 D(7,1,14,15)     =         3.136438	     179.704650
	 D(7,6,5,38)      =         3.113274	     178.377441
	 D(7,8,9,10)      =         2.999641	     171.866748
	 D(7,8,9,40)      =        -0.140998	      -8.078593
	 D(7,8,13,12)     =        -2.961160	    -169.661943
	 D(7,8,13,14)     =         0.044100	       2.526763
	 D(8,7,1,14)      =        -0.020387	      -1.168097
	 D(8,7,6,39)      =        -0.003027	      -0.173454
	 D(8,9,10,11)     =        -0.023966	      -1.373151
	 D(8,9,10,41)     =         3.117533	     178.621467
	 D(8,13,12,11)    =        -0.086659	      -4.965223
	 D(8,13,12,43)    =         3.055725	     175.080163
	 D(8,13,14,15)    =         3.138603	     179.828709
	 D(9,8,13,12)     =         0.106702	       6.113584
	 D(9,8,13,14)     =         3.111962	     178.302290
	 D(9,10,11,12)    =         0.042502	       2.435178
	 D(9,10,11,42)    =        -3.099360	    -177.580261
	 D(10,9,8,13)     =        -0.050476	      -2.892089
	 D(10,11,12,13)   =         0.014244	       0.816106
	 D(10,11,12,43)   =        -3.128142	    -179.229306
	 D(11,10,9,40)    =         3.116674	     178.572250
	 D(11,12,13,14)   =        -3.058086	    -175.215425
	 D(12,11,10,41)   =        -3.098997	    -177.559440
	 D(12,13,14,15)   =        -0.160361	      -9.187997
	 D(13,8,9,40)     =         3.092070	     177.162571
	 D(13,12,11,42)   =        -3.127080	    -179.168462
	 D(13,14,15,16)   =         3.008986	     172.402190
	 D(13,14,15,25)   =        -0.000237	      -0.013595
	 D(14,1,3,36)     =         0.027957	       1.601816
	 D(14,13,12,43)   =         0.084299	       4.829961
	 D(14,15,16,17)   =         1.784489	     102.243681
	 D(14,15,16,18)   =        -2.419800	    -138.644353
	 D(14,15,16,44)   =        -0.360170	     -20.636228
	 D(14,15,25,19)   =         2.597623	     148.832860
	 D(14,15,25,24)   =        -0.721781	     -41.354997
	 D(15,16,17,54)   =         3.008543	     172.376800
	 D(15,16,17,55)   =         0.913922	      52.363871
	 D(15,16,17,56)   =        -1.181106	     -67.672403
	 D(15,16,18,19)   =        -0.574864	     -32.937284
	 D(15,16,18,57)   =         1.500512	      85.973030
	 D(15,16,18,58)   =        -2.650252	    -151.848243
	 D(15,25,19,18)   =         0.052478	       3.006740
	 D(15,25,19,20)   =         3.115768	     178.520334
	 D(15,25,24,22)   =        -3.007220	    -172.301024
	 D(15,25,24,26)   =        -0.026671	      -1.528122
	 D(16,15,25,19)   =        -0.429340	     -24.599384
	 D(16,15,25,24)   =         2.534441	     145.212758
	 D(16,18,19,20)   =        -2.720575	    -155.877474
	 D(16,18,19,25)   =         0.336450	      19.277153
	 D(17,16,15,25)   =        -1.458016	     -83.538181
	 D(17,16,18,19)   =         1.480918	      84.850374
	 D(17,16,18,57)   =        -2.726890	    -156.239312
	 D(17,16,18,58)   =        -0.594469	     -34.060586
	 D(18,16,15,25)   =         0.620880	      35.573785
	 D(18,16,17,54)   =         1.037318	      59.433947
	 D(18,16,17,55)   =        -1.057303	     -60.578981
	 D(18,16,17,56)   =         3.130854	     179.384745
	 D(18,19,20,21)   =         2.970665	     170.206568
	 D(18,19,20,45)   =        -0.171494	      -9.825868
	 D(18,19,25,24)   =        -2.937293	    -168.294519
	 D(19,18,16,44)   =        -2.634485	    -150.944882
	 D(19,20,21,22)   =        -0.031500	      -1.804789
	 D(19,20,21,46)   =         3.109808	     178.178889
	 D(19,25,24,22)   =        -0.061399	      -3.517888
	 D(19,25,24,26)   =         2.919151	     167.255014
	 D(20,19,18,57)   =         1.487960	      85.253822
	 D(20,19,18,58)   =        -0.645220	     -36.968410
	 D(20,19,25,24)   =         0.125997	       7.219075
	 D(20,21,22,24)   =         0.095459	       5.469390
	 D(21,20,19,25)   =        -0.078136	      -4.476890
	 D(21,22,2,23)    =         0.026915	       1.542133
	 D(21,22,24,25)   =        -0.047151	      -2.701541
	 D(21,22,24,26)   =        -3.038342	    -174.084186
	 D(22,2,23,59)    =         0.979119	      56.099413
	 D(22,2,23,60)    =        -1.115831	     -63.932390
	 D(22,2,23,61)    =         3.073339	     176.089326
	 D(22,21,20,45)   =         3.110659	     178.227632
	 D(22,24,26,27)   =         1.974556	     113.133703
	 D(22,24,26,35)   =        -1.087364	     -62.301381
	 D(23,2,22,24)    =        -3.061020	    -175.383499
	 D(24,22,21,46)   =        -3.045849	    -174.514276
	 D(24,26,27,28)   =        -3.058540	    -175.241429
	 D(24,26,27,47)   =         0.082811	       4.744718
	 D(24,26,35,30)   =         3.089387	     177.008828
	 D(24,26,35,34)   =        -0.064005	      -3.667190
	 D(25,15,16,44)   =         2.680510	     153.581909
	 D(25,19,18,57)   =        -1.738200	     -99.591552
	 D(25,19,18,58)   =         2.411804	     138.186216
	 D(25,19,20,45)   =         3.062890	     175.490674
	 D(25,24,26,27)   =        -1.004984	     -57.581332
	 D(25,24,26,35)   =         2.216282	     126.983585
	 D(26,27,28,29)   =        -0.026439	      -1.514818
	 D(26,27,28,48)   =         3.116157	     178.542617
	 D(26,35,30,29)   =        -0.040555	      -2.323615
	 D(26,35,30,31)   =         3.112398	     178.327290
	 D(26,35,34,33)   =        -3.112288	    -178.320987
	 D(26,35,34,53)   =         0.030276	       1.734699
	 D(27,26,35,30)   =         0.027771	       1.591136
	 D(27,26,35,34)   =        -3.125621	    -179.084883
	 D(27,28,29,30)   =         0.013125	       0.752035
	 D(27,28,29,49)   =        -3.128738	    -179.263465
	 D(28,27,26,35)   =         0.005393	       0.309006
	 D(28,29,30,31)   =        -3.132960	    -179.505387
	 D(28,29,30,35)   =         0.020325	       1.164562
	 D(29,28,27,47)   =         3.115396	     178.499035
	 D(29,30,31,32)   =        -3.133341	    -179.527196
	 D(29,30,31,50)   =         0.008482	       0.485969
	 D(29,30,35,34)   =         3.112317	     178.322601
	 D(30,29,28,48)   =        -3.129470	    -179.305434
	 D(30,31,32,33)   =         0.025411	       1.455966
	 D(30,31,32,51)   =        -3.117751	    -178.633950
	 D(30,35,34,33)   =         0.017596	       1.008185
	 D(30,35,34,53)   =        -3.123025	    -178.936129
	 D(31,30,29,49)   =         0.008903	       0.510132
	 D(31,30,35,34)   =        -0.017916	      -1.026493
	 D(31,32,33,34)   =        -0.025960	      -1.487372
	 D(31,32,33,52)   =         3.116140	     178.541695
	 D(32,31,30,35)   =        -0.003366	      -0.192883
	 D(32,33,34,35)   =         0.004090	       0.234341
	 D(32,33,34,53)   =        -3.138475	    -179.821385
	 D(33,32,31,50)   =        -3.116411	    -178.557209
	 D(34,33,32,51)   =         3.117202	     178.602531
	 D(35,26,27,47)   =        -3.136441	    -179.704847
	 D(35,30,29,49)   =        -3.120996	    -178.819919
	 D(35,30,31,50)   =         3.138456	     179.820283
	 D(35,34,33,52)   =        -3.138010	    -179.794718
	 D(36,3,4,37)     =         0.021782	       1.248039
	 D(37,4,5,38)     =         0.023788	       1.362972
	 D(38,5,6,39)     =        -0.026280	      -1.505744
	 D(40,9,10,41)    =        -0.025013	      -1.433133
	 D(41,10,11,42)   =         0.042326	       2.425121
	 D(42,11,12,43)   =         0.013720	       0.786126
	 D(44,16,17,54)   =        -1.130233	     -64.757600
	 D(44,16,17,55)   =         3.058331	     175.229471
	 D(44,16,17,56)   =         0.963303	      55.193197
	 D(44,16,18,57)   =        -0.559109	     -32.034568
	 D(44,16,18,58)   =         1.573312	      90.144159
	 D(45,20,21,46)   =        -0.031219	      -1.788690
	 D(47,27,28,48)   =        -0.025194	      -1.443531
	 D(48,28,29,49)   =         0.011852	       0.679066
	 D(50,31,32,51)   =         0.023612	       1.352876
	 D(51,32,33,52)   =        -0.023883	      -1.368402
	 D(52,33,34,53)   =         0.002610	       0.149555
	 R(2,34)          =         5.502911	       2.912015
	 R(2,35)          =         5.507669	       2.914533
	 R(3,16)          =         5.894753	       3.119369
	 R(3,17)          =         6.990506	       3.699216
	 R(11,26)         =         7.028745	       3.719452
	 R(11,30)         =         6.383985	       3.378260
	 R(11,31)         =         6.890452	       3.646270
	 R(11,32)         =         6.985453	       3.696542
	 R(11,33)         =         6.619479	       3.502877
	 R(11,34)         =         6.088441	       3.221864
	 R(11,35)         =         5.938266	       3.142395
	 R(12,24)         =         6.070245	       3.212236
	 R(12,25)         =         6.332794	       3.351170
	 R(12,26)         =         5.254030	       2.780313
	 R(12,27)         =         6.578325	       3.481100
	 R(12,30)         =         6.423283	       3.399055
	 R(12,34)         =         5.697365	       3.014916
	 R(12,35)         =         5.148376	       2.724403
	 R(13,24)         =         6.810409	       3.603913
	 R(13,26)         =         6.212261	       3.287387
	 R(13,27)         =         6.695790	       3.543260
	 R(13,35)         =         6.994055	       3.701094
	 R(14,26)         =         6.686092	       3.538127
	 R(14,27)         =         6.796539	       3.596574
	 R(15,27)         =         6.472114	       3.424895
	 R(22,34)         =         6.082700	       3.218826
	 D(5,2,4,17)      =         2.870277	     164.454767

	Current energy   :     -1378.5288968766

	Generating empirical Hessian (Schlegel '84) for each fragment.
	Adding user-defined constraint: Fragment 1; Coordinate 384:
		Value =     2.870277; Fixed value    =     0.000017
		Force =    -1.435130; Force constant =     0.500000
	Removing off-diagonal coupling between coordinate 384 and others.
	Taking RFO optimization step.
	Going to follow RFO solution 1.
	Using RFO vector 1.

	Determining step-restricting scale parameter for RS-RFO.
	Maximum step size allowed    0.10000

	 Iter      |step|        alpha        rfo_root  
	------------------------------------------------
	    0     0.87144       1.00000           1
	    1     0.52960       3.01798           1
	    2     0.32913       8.32294           1
	    3     0.21351      20.51074           1
	    4     0.14888      43.05096           1
	    5     0.11574      71.98012           1
	    6     0.10263      91.91158           1
	    7     0.10010      96.70501           1
	    8     0.10000      96.89683           1
	------------------------------------------------
	Norm of target step-size    0.10000
	Projected energy change by RFO approximation:        -0.1069798032

	Back-transformation to cartesian coordinates...
	Successfully converged to displaced geometry.

	--- Internal Coordinate Step in ANG or DEG, aJ/ANG or AJ/DEG ---
	 ---------------------------------------------------------------------------
	   Coordinate                Previous        Force       Change         New 
	   ----------                --------       ------       ------       ------
	    1 R(1,3)          =      1.397824     0.080267     0.000453     1.398277
	    2 R(1,7)          =      1.415586     0.013032     0.000073     1.415659
	    3 R(1,14)         =      1.495048     0.316889     0.001832     1.496881
	    4 R(2,22)         =      1.370352    -0.213851    -0.001227     1.369125
	    5 R(2,23)         =      1.423207     0.249186     0.001475     1.424681
	    6 R(3,4)          =      1.394918    -0.315371    -0.001815     1.393103
	    7 R(3,36)         =      0.950633     1.095203     0.006390     0.957024
	    8 R(4,5)          =      1.392995     0.043358     0.000283     1.393278
	    9 R(4,37)         =      0.949110     1.156932     0.006748     0.955858
	   10 R(5,6)          =      1.389008     0.259940     0.001531     1.390539
	   11 R(5,38)         =      0.949889     1.145503     0.006683     0.956572
	   12 R(6,7)          =      1.390205     0.231358     0.001334     1.391538
	   13 R(6,39)         =      0.949765     1.145840     0.006684     0.956450
	   14 R(7,8)          =      1.459431     0.141683     0.000857     1.460289
	   15 R(8,9)          =      1.387763     0.043968     0.000258     1.388021
	   16 R(8,13)         =      1.411741     0.171094     0.000986     1.412727
	   17 R(9,10)         =      1.389756     0.112493     0.000670     1.390426
	   18 R(9,40)         =      0.949367     1.152163     0.006721     0.956088
	   19 R(10,11)        =      1.393818     0.084239     0.000503     1.394322
	   20 R(10,41)        =      0.949828     1.147276     0.006693     0.956521
	   21 R(11,12)        =      1.393629     0.176864     0.001037     1.394666
	   22 R(11,42)        =      0.948920     1.144515     0.006676     0.955596
	   23 R(12,13)        =      1.390166    -0.148279    -0.000863     1.389303
	   24 R(12,43)        =      0.950094     1.032858     0.006026     0.956119
	   25 R(13,14)        =      1.480928    -0.068813    -0.000443     1.480485
	   26 R(14,15)        =      1.356205    -0.143286    -0.000867     1.355339
	   27 R(15,16)        =      1.524542    -0.340245    -0.002030     1.522513
	   28 R(15,25)        =      1.492378    -0.241614    -0.001425     1.490954
	   29 R(16,17)        =      1.531521     0.963946     0.005669     1.537189
	   30 R(16,18)        =      1.546671     0.026537     0.000164     1.546835
	   31 R(16,44)        =      1.000334     0.614556     0.003618     1.003953
	   32 R(17,54)        =      0.980263     0.878421     0.005154     0.985417
	   33 R(17,55)        =      0.978678     0.881946     0.005174     0.983851
	   34 R(17,56)        =      0.980581     0.867997     0.005094     0.985674
	   35 R(18,19)        =      1.504482     0.043258     0.000274     1.504756
	   36 R(18,57)        =      0.989742     0.785203     0.004615     0.994357
	   37 R(18,58)        =      0.990130     0.773217     0.004545     0.994675
	   38 R(19,20)        =      1.378611    -0.039285    -0.000223     1.378388
	   39 R(19,25)        =      1.413638     0.201896     0.001191     1.414828
	   40 R(20,21)        =      1.391529    -0.127498    -0.000731     1.390798
	   41 R(20,45)        =      0.950489     1.139132     0.006646     0.957135
	   42 R(21,22)        =      1.392029    -0.066045    -0.000377     1.391652
	   43 R(21,46)        =      0.949421     1.134044     0.006615     0.956036
	   44 R(22,24)        =      1.414057     0.102072     0.000601     1.414658
	   45 R(23,59)        =      0.980539     0.882885     0.005181     0.985719
	   46 R(23,60)        =      0.979758     0.890260     0.005223     0.984981
	   47 R(23,61)        =      0.979752     0.849637     0.004985     0.984737
	   48 R(24,25)        =      1.408381    -0.281482    -0.001644     1.406737
	   49 R(24,26)        =      1.493158    -0.206343    -0.001225     1.491933
	   50 R(26,27)        =      1.375529     0.120274     0.000697     1.376227
	   51 R(26,35)        =      1.435491    -0.191540    -0.001130     1.434361
	   52 R(27,28)        =      1.412822     0.019890     0.000120     1.412941
	   53 R(27,47)        =      0.948427     1.157464     0.006750     0.955177
	   54 R(28,29)        =      1.367133     0.060492     0.000360     1.367493
	   55 R(28,48)        =      0.949689     1.146300     0.006687     0.956376
	   56 R(29,30)        =      1.414037     0.047757     0.000285     1.414322
	   57 R(29,49)        =      0.950499     1.141710     0.006661     0.957161
	   58 R(30,31)        =      1.426692    -0.000044    -0.000001     1.426691
	   59 R(30,35)        =      1.423971     0.145109     0.000845     1.424816
	   60 R(31,32)        =      1.360856     0.128129     0.000754     1.361610
	   61 R(31,50)        =      0.950023     1.149678     0.006707     0.956730
	   62 R(32,33)        =      1.411844     0.082366     0.000486     1.412330
	   63 R(32,51)        =      0.950601     1.137760     0.006638     0.957239
	   64 R(33,34)        =      1.369844     0.042279     0.000249     1.370093
	   65 R(33,52)        =      0.950138     1.143895     0.006674     0.956812
	   66 R(34,35)        =      1.419138    -0.028957    -0.000168     1.418970
	   67 R(34,53)        =      0.948615     1.150049     0.006707     0.955322
	   68 B(1,3,4)        =    119.560774     0.001546     0.107248   119.668022
	   69 B(1,3,36)       =    120.305208    -0.000432    -0.013973   120.291235
	   70 B(1,7,6)        =    122.083352    -0.000417    -0.037088   122.046264
	   71 B(1,7,8)        =    108.660805    -0.000788    -0.044528   108.616277
	   72 B(1,14,13)      =    104.792079    -0.000150    -0.004177   104.787902
	   73 B(1,14,15)      =    126.681166    -0.002245    -0.162735   126.518431
	   74 B(2,22,21)      =    123.155960    -0.002810    -0.194927   122.961033
	   75 B(2,22,24)      =    114.747252     0.001971     0.136515   114.883767
	   76 B(2,23,59)      =    109.455994     0.000445     0.032730   109.488723
	   77 B(2,23,60)      =    109.493093     0.000527     0.036303   109.529396
	   78 B(2,23,61)      =    109.457340    -0.001150    -0.083452   109.373888
	   79 B(3,1,7)        =    118.142594    -0.000628    -0.031526   118.111068
	   80 B(3,1,14)       =    133.047344     0.000582     0.040980   133.088324
	   81 B(3,4,5)        =    121.337236     0.000791     0.032004   121.369239
	   82 B(3,4,37)       =    119.298449    -0.000434    -0.028761   119.269688
	   83 B(4,3,36)       =    120.134000    -0.001112    -0.093473   120.040527
	   84 B(4,5,6)        =    120.072293    -0.001234    -0.065004   120.007288
	   85 B(4,5,38)       =    119.927055     0.000599     0.021495   119.948550
	   86 B(5,4,37)       =    119.364270    -0.000346    -0.005638   119.358632
	   87 B(5,6,7)        =    118.698854     0.000358     0.016458   118.715312
	   88 B(5,6,39)       =    120.656819    -0.000177    -0.000094   120.656725
	   89 B(6,5,38)       =    120.000629     0.000641     0.041596   120.042225
	   90 B(6,7,8)        =    129.253242     0.001196     0.080945   129.334187
	   91 B(7,1,14)       =    108.658909     0.000173    -0.000570   108.658339
	   92 B(7,6,39)       =    120.644222    -0.000183    -0.016662   120.627561
	   93 B(7,8,9)        =    130.070773    -0.000637    -0.036119   130.034654
	   94 B(7,8,13)       =    108.385465     0.000699     0.039445   108.424910
	   95 B(8,9,10)       =    118.560858    -0.000207    -0.011692   118.549166
	   96 B(8,9,40)       =    120.772577     0.000117     0.009372   120.781950
	   97 B(8,13,12)      =    119.206796     0.000377     0.023926   119.230722
	   98 B(8,13,14)      =    109.408872    -0.000396    -0.026733   109.382139
	   99 B(9,8,13)       =    121.378758    -0.000144    -0.009125   121.369634
	  100 B(9,10,11)      =    120.468107     0.000064    -0.000090   120.468017
	  101 B(9,10,41)      =    119.776822    -0.000011     0.001979   119.778800
	  102 B(10,9,40)      =    120.666542     0.000090     0.002179   120.668721
	  103 B(10,11,12)     =    120.952104    -0.000258    -0.015737   120.936367
	  104 B(10,11,42)     =    119.547412     0.000227     0.010188   119.557600
	  105 B(11,10,41)     =    119.755071    -0.000053    -0.001892   119.753179
	  106 B(11,12,13)     =    119.160891     0.000101     0.007843   119.168734
	  107 B(11,12,43)     =    120.446446    -0.000044    -0.000145   120.446302
	  108 B(12,11,42)     =    119.500482     0.000031     0.005505   119.505988
	  109 B(12,13,14)     =    130.803568     0.000192     0.015092   130.818660
	  110 B(13,12,43)     =    120.392647    -0.000057    -0.007686   120.384961
	  111 B(13,14,15)     =    128.454171     0.002343     0.163169   128.617340
	  112 B(14,15,16)     =    122.931085     0.000800     0.054337   122.985421
	  113 B(14,15,25)     =    132.331886    -0.001491    -0.102773   132.229112
	  114 B(15,16,17)     =    110.103865    -0.007944    -0.558809   109.545056
	  115 B(15,16,18)     =    102.174435     0.000696     0.048729   102.223164
	  116 B(15,16,44)     =    110.760675     0.002259     0.158099   110.918774
[...]
	 Forces used to impose fixed constraints are not included.
	  Forces zeroed: 384 

  ==> Convergence Check <==

  Measures of convergence in internal coordinates in au.
  Criteria marked as inactive (o), active & met (*), and active & unmet ( ).
  ---------------------------------------------------------------------------------------------
   Step     Total Energy     Delta E     MAX Force     RMS Force      MAX Disp      RMS Disp   
  ---------------------------------------------------------------------------------------------
    Convergence Criteria    1.00e-06 *    3.00e-04 *             o    1.20e-03 *             o
  ---------------------------------------------------------------------------------------------
     31   -1378.72277320    7.11e-03      1.44e-01      3.39e-02 o    6.24e-02      5.10e-03 o  ~
  ---------------------------------------------------------------------------------------------

	Writing optimization data to binary file.
	Structure for next step:
	Cartesian Geometry (in Angstrom)
	    C     0.9603628351  -0.3464476639  -3.1641382226
	    O    -0.4315345280   2.1602071582   3.4189140581
	    C     1.5198973259   0.4644947963  -4.1639589761
	    C     1.7715421460   0.0855238013  -5.4400161003
	    C     0.9675765262  -0.9960808367  -5.8857799944
	    C     0.5347407635  -1.9500093169  -4.8539202713
	    C     0.6255756929  -1.6525621368  -3.4450223464
	    C     0.4990234411  -2.3130315110  -2.0523786830
	    C     0.4154972864  -3.6316601339  -1.6051514057
	    C     0.5745642318  -3.8880014074  -0.2080881272
	    C     0.8119664839  -2.8578669447   0.7422900802
	    C     0.8002936960  -1.5305216250   0.3004639534
	    C     0.6124986177  -1.2873825093  -1.0357700394
	    C     0.5943481779  -0.0571978591  -1.7350507161
	    C     0.3738261557   1.1470459294  -1.3095204608
	    C    -0.0190461154   2.1161679254  -2.2835183175
	    C    -1.5862037282   1.5160936098  -2.2872230323
	    C     0.6580550417   3.4376891033  -1.8382680724
	    C     0.6673532700   3.1867901946  -0.3370024335
	    C     0.8029174838   4.1296469003   0.6475059910
	    C     0.5364330393   3.7480090669   1.9527143844
	    C     0.0292594765   2.4751140728   2.1951384668
	    C    -0.4235962415   3.1586066232   4.4697144730
	    C    -0.1061502463   1.4810197657   1.1817409120
	    C     0.3279536460   1.8144135362  -0.0538869063
	    C    -0.9319045378   0.2973951906   1.4469511764
	    C    -2.1258313401   0.2029180436   0.7395399383
	    C    -3.0771734244  -0.8007193192   1.0288921176
	    C    -2.8186088553  -1.7306083744   2.0064772560
	    C    -1.5943222844  -1.6845518376   2.7161313622
	    C    -1.2670591866  -2.6585267026   3.7031331943
	    C    -0.0507052129  -2.6075046849   4.3371554818
	    C     0.8661871909  -1.5623786080   4.0465489823
	    C     0.5690135107  -0.5909620136   3.1264829678
	    C    -0.6431662375  -0.6376120734   2.4319790336
	    H     1.8528556271   1.4246485283  -3.8926659113
	    H     2.2426476357   0.7426313869  -6.1185144302
	    H     0.9437007176  -1.2723100163  -6.9043498454
	    H     0.1675953754  -2.8928729989  -5.1571849906
	    H     0.2827187635  -4.4300947888  -2.2832043974
	    H     0.5204688387  -4.8867096832   0.1314135635
	    H     0.9583680966  -3.0864108579   1.7606611589
	    H     0.9536249819  -0.7416414403   0.9631161289
	    H     0.3280930210   1.9417411361  -3.2656739193
	    H     1.1155957807   5.1128088456   0.4212969912
	    H     0.6760271740   4.4289981491   2.7433511421
	    H    -2.3371803299   0.9079793338  -0.0099325127
	    H    -3.9893523089  -0.8270428552   0.4979169752
	    H    -3.5212176857  -2.4894473606   2.2219050338
	    H    -1.9547835161  -3.4293305508   3.9242135285
	    H     0.2083472618  -3.3487117283   5.0435378743
	    H     1.7880826851  -1.5267536634   4.5610320443
	    H     1.2587232839   0.1809784797   2.9260305039
	    H    -2.2139642089   2.1291506763  -2.9000083476
	    H    -1.9651578458   1.5093635631  -1.2957257472
	    H    -1.5609419473   0.5246890136  -2.6759384045
	    H     1.6271331726   3.4816340982  -2.2918602631
	    H     0.1279896565   4.3403206010  -2.0601269302
	    H    -0.9704335310   4.0253434144   4.1635682107
	    H     0.5791213816   3.4405443361   4.7122307527
	    H    -0.8887893021   2.7212471564   5.3217800385
			--------------------------
			 OPTKING Finished Execution 
			--------------------------

    Structure for next step:
    Molecular point group: c1
    Full point group: C1

    Geometry (in Angstrom), charge = 0, multiplicity = 1:

    C            0.960809677421    -0.347165497456    -3.163508046416
    O           -0.431087685693     2.159489324632     3.419544234323
    C            1.520344168216     0.463776962751    -4.163328799872
    C            1.771988988324     0.084805967749    -5.439385924096
    C            0.968023368525    -0.996798670222    -5.885149818225
    C            0.535187605830    -1.950727150412    -4.853290095068
    C            0.626022535228    -1.653279970330    -3.444392170208
    C            0.499470283381    -2.313749344566    -2.051748506815
    C            0.415944128732    -3.632377967430    -1.604521229517
    C            0.575011074094    -3.888719240927    -0.207457950940
    C            0.812413326229    -2.858584778252     0.742920256428
    C            0.800740538275    -1.531239458510     0.301094129582
    C            0.612945460004    -1.288100342815    -1.035139863162
    C            0.594795020209    -0.057915692696    -1.734420539885
    C            0.374272997984     1.146328095847    -1.308890284634
    C           -0.018599273062     2.115450091824    -2.282888141291
    C           -1.585756885945     1.515375776270    -2.286592856114
    C            0.658501884004     3.436971269706    -1.837637896175
    C            0.667800112279     3.186072361029    -0.336372257244
    C            0.803364326125     4.128929066741     0.648136167192
    C            0.536879881583     3.747291233382     1.953344560594
    C            0.029706318766     2.474396239200     2.195768643025
    C           -0.423149399184     3.157888789651     4.470344649170
    C           -0.105703404056     1.480301932177     1.182371088217
    C            0.328400488242     1.813695702657    -0.053256730072
    C           -0.931457695537     0.296677357075     1.447581352628
    C           -2.125384497797     0.202200210045     0.740170114537
    C           -3.076726582144    -0.801437152772     1.029522293791
    C           -2.818162013047    -1.731326207935     2.007107432240
    C           -1.593875442089    -1.685269671110     2.716761538446
    C           -1.266612344358    -2.659244536158     3.703763370464
    C           -0.050258370590    -2.608222518455     4.337785658036
    C            0.866634033186    -1.563096441513     4.047179158543
    C            0.569460353035    -0.591679847143     3.127113144057
    C           -0.642719395217    -0.638329906953     2.432609209848
    H            1.853302469413     1.423930694738    -3.892035735085
    H            2.243094478021     0.741913553394    -6.117884253979
    H            0.944147559874    -1.273027849877    -6.903719669223
    H            0.168042217728    -2.893590832460    -5.156554814357
    H            0.283165605772    -4.430812622345    -2.282574221229
    H            0.520915680974    -4.887427516735     0.132043739755
    H            0.958814938846    -3.087128691460     1.761291335089
    H            0.954071824226    -0.742359273879     0.963746305076
    H            0.328539863254     1.941023302567    -3.265043743136
    H            1.116042622956     5.112091012071     0.421927167431
    H            0.676474016311     4.428280315570     2.743981318296
    H           -2.336733487594     0.907261500223    -0.009302336460
    H           -3.988905466619    -0.827760688723     0.498547151457
    H           -3.520770843437    -2.490165194119     2.222535209973
    H           -1.954336673792    -3.430048384350     3.924843704707
    H            0.208794104131    -3.349429561898     5.044168050526
    H            1.788529527359    -1.527471496982     4.561662220489
    H            1.259170126175     0.180260646174     2.926660680063
    H           -2.213517366611     2.128432842758    -2.899378171433
    H           -1.964711003519     1.508645729521    -1.295095571031
    H           -1.560495105033     0.523971180072    -2.675308228282
    H            1.627580014845     3.480916264647    -2.291230086869
    H            0.128436498743     4.339602767485    -2.059496753952
    H           -0.969986688673     4.024625580856     4.164198386876
    H            0.579568223926     3.439826502543     4.712860928915
    H           -0.888342459783     2.720529322895     5.322410214694

gradient() will perform analytic gradient computation.

*** tstart() called on warthog
*** at Mon Nov 20 16:17:19 2017

   => Loading Basis Set <=

    Name: 3-21G
    Role: ORBITAL
    Keyword: BASIS
    atoms 1, 3-35 entry C          line    67 file /home/dslochower/data/applications/psi4conda/share/psi4/basis/3-21g.gbs 
    atoms 2       entry O          line    89 file /home/dslochower/data/applications/psi4conda/share/psi4/basis/3-21g.gbs 
    atoms 36-61   entry H          line    20 file /home/dslochower/data/applications/psi4conda/share/psi4/basis/3-21g.gbs 


         ---------------------------------------------------------
                                   SCF
            by Justin Turney, Rob Parrish, and Andy Simmonett
                              RKS Reference
                        4 Threads,   7629 MiB Core
         ---------------------------------------------------------

  ==> Geometry <==

    Molecular point group: c1
    Full point group: C1

    Geometry (in Angstrom), charge = 0, multiplicity = 1:

       Center              X                  Y                   Z               Mass       
    ------------   -----------------  -----------------  -----------------  -----------------
           C          0.960809677421    -0.347165497456    -3.163508046416    12.000000000000
           O         -0.431087685693     2.159489324632     3.419544234323    15.994914619560
           C          1.520344168216     0.463776962751    -4.163328799872    12.000000000000
           C          1.771988988324     0.084805967749    -5.439385924096    12.000000000000
           C          0.968023368525    -0.996798670222    -5.885149818225    12.000000000000
           C          0.535187605830    -1.950727150412    -4.853290095068    12.000000000000
           C          0.626022535228    -1.653279970330    -3.444392170208    12.000000000000
           C          0.499470283381    -2.313749344566    -2.051748506815    12.000000000000
           C          0.415944128732    -3.632377967430    -1.604521229517    12.000000000000
           C          0.575011074094    -3.888719240927    -0.207457950940    12.000000000000
           C          0.812413326229    -2.858584778252     0.742920256428    12.000000000000
           C          0.800740538275    -1.531239458510     0.301094129582    12.000000000000
           C          0.612945460004    -1.288100342815    -1.035139863162    12.000000000000
           C          0.594795020209    -0.057915692696    -1.734420539885    12.000000000000
           C          0.374272997984     1.146328095847    -1.308890284634    12.000000000000
           C         -0.018599273062     2.115450091824    -2.282888141291    12.000000000000
           C         -1.585756885945     1.515375776270    -2.286592856114    12.000000000000
           C          0.658501884004     3.436971269706    -1.837637896175    12.000000000000
           C          0.667800112279     3.186072361029    -0.336372257244    12.000000000000
           C          0.803364326125     4.128929066741     0.648136167192    12.000000000000
           C          0.536879881583     3.747291233382     1.953344560594    12.000000000000
           C          0.029706318766     2.474396239200     2.195768643025    12.000000000000
           C         -0.423149399184     3.157888789651     4.470344649170    12.000000000000
           C         -0.105703404056     1.480301932177     1.182371088217    12.000000000000
           C          0.328400488242     1.813695702657    -0.053256730072    12.000000000000
           C         -0.931457695537     0.296677357075     1.447581352628    12.000000000000
           C         -2.125384497797     0.202200210045     0.740170114537    12.000000000000
           C         -3.076726582144    -0.801437152772     1.029522293791    12.000000000000
           C         -2.818162013047    -1.731326207935     2.007107432240    12.000000000000
           C         -1.593875442089    -1.685269671110     2.716761538446    12.000000000000
           C         -1.266612344358    -2.659244536158     3.703763370464    12.000000000000
           C         -0.050258370590    -2.608222518455     4.337785658036    12.000000000000
           C          0.866634033186    -1.563096441513     4.047179158543    12.000000000000
           C          0.569460353035    -0.591679847143     3.127113144057    12.000000000000
           C         -0.642719395217    -0.638329906953     2.432609209848    12.000000000000
           H          1.853302469413     1.423930694738    -3.892035735085     1.007825032070
           H          2.243094478021     0.741913553394    -6.117884253979     1.007825032070
           H          0.944147559874    -1.273027849877    -6.903719669223     1.007825032070
           H          0.168042217728    -2.893590832460    -5.156554814357     1.007825032070
           H          0.283165605772    -4.430812622345    -2.282574221229     1.007825032070
           H          0.520915680974    -4.887427516735     0.132043739755     1.007825032070
           H          0.958814938846    -3.087128691460     1.761291335089     1.007825032070
           H          0.954071824226    -0.742359273879     0.963746305076     1.007825032070
           H          0.328539863254     1.941023302567    -3.265043743136     1.007825032070
           H          1.116042622956     5.112091012071     0.421927167431     1.007825032070
           H          0.676474016311     4.428280315570     2.743981318296     1.007825032070
           H         -2.336733487594     0.907261500223    -0.009302336460     1.007825032070
           H         -3.988905466619    -0.827760688723     0.498547151457     1.007825032070
           H         -3.520770843437    -2.490165194119     2.222535209973     1.007825032070
           H         -1.954336673792    -3.430048384350     3.924843704707     1.007825032070
           H          0.208794104131    -3.349429561898     5.044168050526     1.007825032070
           H          1.788529527359    -1.527471496982     4.561662220489     1.007825032070
           H          1.259170126175     0.180260646174     2.926660680063     1.007825032070
           H         -2.213517366611     2.128432842758    -2.899378171433     1.007825032070
           H         -1.964711003519     1.508645729521    -1.295095571031     1.007825032070
           H         -1.560495105033     0.523971180072    -2.675308228282     1.007825032070
           H          1.627580014845     3.480916264647    -2.291230086869     1.007825032070
           H          0.128436498743     4.339602767485    -2.059496753952     1.007825032070
           H         -0.969986688673     4.024625580856     4.164198386876     1.007825032070
           H          0.579568223926     3.439826502543     4.712860928915     1.007825032070
           H         -0.888342459783     2.720529322895     5.322410214694     1.007825032070

  Running in c1 symmetry.

  Rotational constants: A =      0.00628  B =      0.00392  C =      0.00279 [cm^-1]
  Rotational constants: A =    188.26933  B =    117.57523  C =     83.73663 [MHz]
  Nuclear repulsion = 3648.170709129472471

  Charge       = 0
  Multiplicity = 1
  Electrons    = 238
  Nalpha       = 119
  Nbeta        = 119

  ==> Algorithm <==

  SCF Algorithm Type is DF.
  DIIS enabled.
  MOM disabled.
  Fractional occupation disabled.
  Guess Type is READ.
  Energy threshold   = 1.00e-08
  Density threshold  = 1.00e-08
  Integral threshold = 0.00e+00

  ==> Primary Basis <==

  Basis Set: 3-21G
    Blend: 3-21G
    Number of shells: 227
    Number of basis function: 367
    Number of Cartesian functions: 367
    Spherical Harmonics?: false
    Max angular momentum: 1

  ==> DFT Potential <==

   => B3LYP Composite Functional <= 

    B3LYP Hybrid-GGA Exchange-Correlation Functional (VWN1-RPA)

    P.J. Stephens et. al., J. Phys. Chem., 98, 11623-11627, 1994

    Points   =           5000
    Deriv    =              1
    GGA      =           TRUE
    Meta     =          FALSE

    X_LRC        =          FALSE
    X_Hybrid     =           TRUE
    X_Alpha      =   2.000000E-01
    X_Omega      =   0.000000E+00
    C_LRC        =          FALSE
    C_Hybrid     =          FALSE
    C_Alpha      =   0.000000E+00
    C_Omega      =   0.000000E+00

   => Exchange Functionals <=

    0.8000    B3_X
    0.2000      HF 

   => Correlation Functionals <=

    0.1900 VWN3RPA_C
    0.8100   LYP_C

   => Molecular Quadrature <=

    Radial Scheme    =       TREUTLER
    Pruning Scheme   =           FLAT
    Nuclear Scheme   =       TREUTLER

    BS radius alpha  =              1
    Pruning alpha    =              1
    Radial Points    =             75
    Spherical Points =            302
    Total Points     =        1351077
    Total Blocks     =           1022
    Max Points       =           4999
    Max Functions    =            274

   => Loading Basis Set <=

    Name: (3-21G AUX)
    Role: JKFIT
    Keyword: DF_BASIS_SCF
    atoms 1, 3-35 entry C          line   202 file /home/dslochower/data/applications/psi4conda/share/psi4/basis/def2-svp-jkfit.gbs 
    atoms 2       entry O          line   322 file /home/dslochower/data/applications/psi4conda/share/psi4/basis/def2-svp-jkfit.gbs 
    atoms 36-61   entry H          line    22 file /home/dslochower/data/applications/psi4conda/share/psi4/basis/def2-svp-jkfit.gbs 

  Reading orbitals from file 180, no projection.

  ==> Pre-Iterations <==

   -------------------------------------------------------
    Irrep   Nso     Nmo     Nalpha   Nbeta   Ndocc  Nsocc
   -------------------------------------------------------
     A        367     367       0       0       0       0
   -------------------------------------------------------
    Total     367     367     119     119     119       0
   -------------------------------------------------------

  ==> Integral Setup <==

  ==> DFJK: Density-Fitted J/K Matrices <==

    J tasked:                  Yes
    K tasked:                  Yes
    wK tasked:                  No
    OpenMP threads:              4
    Integrals threads:           4
    Memory (MB):              5722
    Algorithm:                Core
    Integral Cache:           NONE
    Schwarz Cutoff:          1E-12
    Fitting Condition:       1E-12

   => Auxiliary Basis Set <=

  Basis Set: (3-21G AUX)
    Blend: DEF2-SVP-JKFIT
    Number of shells: 1031
    Number of basis function: 3639
    Number of Cartesian functions: 3639
    Spherical Harmonics?: false
    Max angular momentum: 4

  Minimum eigenvalue in the overlap matrix is 8.4167990132E-04.
  Using Symmetric Orthogonalization.

  SCF Guess: Orbitals guess was supplied from a previous computation.

  ==> Iterations <==

                           Total Energy        Delta E     RMS |[F,P]|

   @DF-RKS iter   0: -1378.69057570345080   -1.37869e+03   7.13264e-04 
   @DF-RKS iter   1: -1378.71510423151972   -2.45285e-02   1.01920e-04 
   @DF-RKS iter   2: -1378.71474542769602    3.58804e-04   1.72577e-04 DIIS
   @DF-RKS iter   3: -1378.71533495774383   -5.89530e-04   3.83297e-05 DIIS
