
Host: warthog

Timers On : Sun Nov 19 10:44:19 2017
Timers Off: Sun Nov 19 10:44:19 2017

Wall Time:        0.00 seconds


***********************************************************
