
    -----------------------------------------------------------------------
          Psi4: An Open-Source Ab Initio Electronic Structure Package
                               Psi4 1.2a1.dev611 

                         Git: Rev {master} 8fe3513 


    R. M. Parrish, L. A. Burns, D. G. A. Smith, A. C. Simmonett,
    A. E. DePrince III, E. G. Hohenstein, U. Bozkaya, A. Yu. Sokolov,
    R. Di Remigio, R. M. Richard, J. F. Gonthier, A. M. James,
    H. R. McAlexander, A. Kumar, M. Saitow, X. Wang, B. P. Pritchard,
    P. Verma, H. F. Schaefer III, K. Patkowski, R. A. King, E. F. Valeev,
    F. A. Evangelista, J. M. Turney, T. D. Crawford, and C. D. Sherrill,
    J. Chem. Theory Comput. 13(7) pp 3185--3197 (2017).
    (doi: 10.1021/acs.jctc.7b00174)

    -----------------------------------------------------------------------


    Psi4 started on: Friday, 17 November 2017 11:27AM

    Process ID:   3972
    PSIDATADIR: /home/dslochower/data/applications/anaconda3/envs/p4env/share/psi4
    Memory:     500.0 MiB
    Threads:    1
    
  ==> Input File <==

--------------------------------------------------------------------------

memory 8 Gb

molecule {
O           -1.367902803504     2.383850568663     2.988838035548
C           -1.073226157616     0.212522486032     1.363761789173
C           -0.207358255594     1.012661239257    -1.642074921576
C           -0.930642240591     2.689919333681     1.749739284335
C            0.421602601148    -0.158933006819    -1.816450548278
C           -2.068973639135    -0.452165047537     0.710331117364
H           -2.555025374621     0.016433717354    -0.125291339625
C            0.330795412189    -1.051177716956    -3.016985931141
C            2.036913572150    -0.395782682870     0.227098810982
H            1.773165112999     0.538317519667     0.677966240944
C           -0.423802743185     4.257534216824     0.001373596449
H           -0.347005552318     5.276593089652    -0.336238284861
C           -0.719576503383     1.593698314653     0.887598078928
C           -0.447340573612    -0.414531908166     2.493833949757
C            2.840977877882    -2.791819281196    -0.964669980552
H            3.171051128387    -3.699449185012    -1.438578495484
C           -0.741470757212     3.994441147124     1.327004686062
H           -0.899464358157     4.813388658380     2.000778144640
C            1.851021644986    -2.012935149450    -1.535160999028
C           -0.711641035872     1.887314352387    -2.792200947362
H           -0.275096707249     1.574894281381    -3.729253232549
C           -0.350396554798     1.885419647680    -0.429347864600
C           -0.268532136245     3.212767389315    -0.872087750309
C            1.411844203845    -0.831858150227    -0.928242836884
C            3.422181231884    -2.370588819251     0.220174390063
H            4.193455282501    -2.962720914165     0.680560708752
C            0.597012301805     0.193831213782     3.245223267338
H            0.942755965043     1.169807724099     2.965347627459
C           -2.489856304658    -1.741679970569     1.103016395538
H           -3.276888163452    -2.228538444623     0.555018009025
C           -0.391773205156    -2.031597974766    -5.086620844124
H           -1.003382005348    -1.983855216693    -5.970452589474
C            1.154506805673    -2.166665210272    -2.817384173910
C           -0.872618224221    -1.701490705197     2.883901790029
C           -2.239500331029     1.937094437074    -2.924990741705
H           -2.524894684763     2.568580108499    -3.761747713841
H           -2.698274867305     2.343489922954    -2.029853854425
H           -2.658088680813     0.950471763657    -3.091594540679
C           -0.137363238888     3.261731365820    -2.373105071853
H            0.902124524000     3.338730455351    -2.683415915065
H           -0.678114230022     4.093961941516    -2.812327780952
C           -0.464199526857    -1.005950363790    -4.154670594368
H           -1.147657425626    -0.202229474096    -4.335546219288
C            0.447438401485    -3.116496883392    -4.888298289357
H            0.488080454933    -3.904995270694    -5.618984900354
C            3.030583576662    -1.174214949650     0.801353966761
H            3.499344630858    -0.843426877878     1.710552726307
C            1.221833314871    -3.192420884480    -3.742327016572
H            1.859458340531    -4.042300119849    -3.574312034476
C           -0.260187533621    -2.335274803535     3.999709109556
H           -0.598739206366    -3.317203664858     4.282102558888
C            0.728916733110    -1.723286697848     4.695687362381
H            1.185879505302    -2.210637832020     5.538862306978
C           -1.906529545316    -2.351663362444     2.162756887906
H           -2.219167228600    -3.333864284666     2.472186102825
C           -1.626423308280     3.389652858724     3.924077710589
H           -2.409933500850     4.059448518487     3.583143095010
H           -0.734377680906     3.966857559701     4.148687155299
H           -1.955696875446     2.885420524302     4.820423074564
C            1.164216485992    -0.434346715241     4.306127499244
H            1.951856677383     0.049076612735     4.857449445738
}

steps = 36
step_size = 10
start_angle = -13.8
for counter in range (0, steps):

    set {
        basis 6-31G*
        scf_type df
        guess sad
        ints_tolerance 1.0E-8
    }

    dihedral = 1.0 * counter * step_size + start_angle
    dihedral_string =  "17 4 2 15 %.1f" % dihedral

    set optking {
        frozen_dihedral = ""
        fixed_dihedral = $dihedral_string
    }
    optimize('scf')   # geometry optimization with HF

    # change basis set for single point energy calculation
    set {
        basis 6-311+G**
        scf_type df
        guess sad
    }
    DFT_energy = energy ('b3lyp')  # single point energy

    print("Dihedral = {0:5.5f}".format(dihedral))
    print("DFT Energy (kcal/mol) = {0:5.5f}".format(DFT_energy  * psi_hartree2kcalmol))
--------------------------------------------------------------------------

  Memory set to   7.451 GiB by Python driver.
gradient() will perform analytic gradient computation.

*** tstart() called on warthog
*** at Fri Nov 17 11:27:13 2017

   => Loading Basis Set <=

    Name: 6-31G*
    Role: ORBITAL
    Keyword: BASIS
    atoms 1                                                                                                entry O          line   145 file /home/dslochower/data/applications/anaconda3/envs/p4env/share/psi4/basis/6-31gs.gbs 
    atoms 2-6, 8-9, 11, 13-15, 17, 19-20, 22-25, 27, 29, 31, 33-35, 39, 42, 44, 46, 48, 50, 52, 54, 56, 60 entry C          line   111 file /home/dslochower/data/applications/anaconda3/envs/p4env/share/psi4/basis/6-31gs.gbs 
    atoms 7, 10, 12, 16, 18, 21, 26, 28, 30, 32, 36-38, 40-41, 43, 45, 47, 49, 51, 53, 55, 57-59, 61       entry H          line    44 file /home/dslochower/data/applications/anaconda3/envs/p4env/share/psi4/basis/6-31gs.gbs 

    There are an even number of electrons - assuming singlet.
    Specify the multiplicity in the molecule input block.


         ---------------------------------------------------------
                                   SCF
            by Justin Turney, Rob Parrish, Andy Simmonett
                             and Daniel Smith
                              RHF Reference
                        1 Threads,   7629 MiB Core
         ---------------------------------------------------------

  ==> Geometry <==

    Molecular point group: c1
    Full point group: C1

    Geometry (in Angstrom), charge = 0, multiplicity = 1:

       Center              X                  Y                   Z               Mass       
    ------------   -----------------  -----------------  -----------------  -----------------
           O         -1.367902803504     2.383850568663     2.988838035548    15.994914619560
           C         -1.073226157616     0.212522486032     1.363761789173    12.000000000000
           C         -0.207358255594     1.012661239257    -1.642074921576    12.000000000000
           C         -0.930642240591     2.689919333681     1.749739284335    12.000000000000
           C          0.421602601148    -0.158933006819    -1.816450548278    12.000000000000
           C         -2.068973639135    -0.452165047537     0.710331117364    12.000000000000
           H         -2.555025374621     0.016433717354    -0.125291339625     1.007825032070
           C          0.330795412189    -1.051177716956    -3.016985931141    12.000000000000
           C          2.036913572150    -0.395782682870     0.227098810982    12.000000000000
           H          1.773165112999     0.538317519667     0.677966240944     1.007825032070
           C         -0.423802743185     4.257534216824     0.001373596449    12.000000000000
           H         -0.347005552318     5.276593089652    -0.336238284861     1.007825032070
           C         -0.719576503383     1.593698314653     0.887598078928    12.000000000000
           C         -0.447340573612    -0.414531908166     2.493833949757    12.000000000000
           C          2.840977877882    -2.791819281196    -0.964669980552    12.000000000000
           H          3.171051128387    -3.699449185012    -1.438578495484     1.007825032070
           C         -0.741470757212     3.994441147124     1.327004686062    12.000000000000
           H         -0.899464358157     4.813388658380     2.000778144640     1.007825032070
           C          1.851021644986    -2.012935149450    -1.535160999028    12.000000000000
           C         -0.711641035872     1.887314352387    -2.792200947362    12.000000000000
           H         -0.275096707249     1.574894281381    -3.729253232549     1.007825032070
           C         -0.350396554798     1.885419647680    -0.429347864600    12.000000000000
           C         -0.268532136245     3.212767389315    -0.872087750309    12.000000000000
           C          1.411844203845    -0.831858150227    -0.928242836884    12.000000000000
           C          3.422181231884    -2.370588819251     0.220174390063    12.000000000000
           H          4.193455282501    -2.962720914165     0.680560708752     1.007825032070
           C          0.597012301805     0.193831213782     3.245223267338    12.000000000000
           H          0.942755965043     1.169807724099     2.965347627459     1.007825032070
           C         -2.489856304658    -1.741679970569     1.103016395538    12.000000000000
           H         -3.276888163452    -2.228538444623     0.555018009025     1.007825032070
           C         -0.391773205156    -2.031597974766    -5.086620844124    12.000000000000
           H         -1.003382005348    -1.983855216693    -5.970452589474     1.007825032070
           C          1.154506805673    -2.166665210272    -2.817384173910    12.000000000000
           C         -0.872618224221    -1.701490705197     2.883901790029    12.000000000000
           C         -2.239500331029     1.937094437074    -2.924990741705    12.000000000000
           H         -2.524894684763     2.568580108499    -3.761747713841     1.007825032070
           H         -2.698274867305     2.343489922954    -2.029853854425     1.007825032070
           H         -2.658088680813     0.950471763657    -3.091594540679     1.007825032070
           C         -0.137363238888     3.261731365820    -2.373105071853    12.000000000000
           H          0.902124524000     3.338730455351    -2.683415915065     1.007825032070
           H         -0.678114230022     4.093961941516    -2.812327780952     1.007825032070
           C         -0.464199526857    -1.005950363790    -4.154670594368    12.000000000000
           H         -1.147657425626    -0.202229474096    -4.335546219288     1.007825032070
           C          0.447438401485    -3.116496883392    -4.888298289357    12.000000000000
           H          0.488080454933    -3.904995270694    -5.618984900354     1.007825032070
           C          3.030583576662    -1.174214949650     0.801353966761    12.000000000000
           H          3.499344630858    -0.843426877878     1.710552726307     1.007825032070
           C          1.221833314871    -3.192420884480    -3.742327016572    12.000000000000
           H          1.859458340531    -4.042300119849    -3.574312034476     1.007825032070
           C         -0.260187533621    -2.335274803535     3.999709109556    12.000000000000
           H         -0.598739206366    -3.317203664858     4.282102558888     1.007825032070
           C          0.728916733110    -1.723286697848     4.695687362381    12.000000000000
           H          1.185879505302    -2.210637832020     5.538862306978     1.007825032070
           C         -1.906529545316    -2.351663362444     2.162756887906    12.000000000000
           H         -2.219167228600    -3.333864284666     2.472186102825     1.007825032070
           C         -1.626423308280     3.389652858724     3.924077710589    12.000000000000
           H         -2.409933500850     4.059448518487     3.583143095010     1.007825032070
           H         -0.734377680906     3.966857559701     4.148687155299     1.007825032070
           H         -1.955696875446     2.885420524302     4.820423074564     1.007825032070
           C          1.164216485992    -0.434346715241     4.306127499244    12.000000000000
           H          1.951856677383     0.049076612735     4.857449445738     1.007825032070

  Running in c1 symmetry.

  Rotational constants: A =      0.00562  B =      0.00390  C =      0.00287 [cm^-1]
  Rotational constants: A =    168.55772  B =    116.90937  C =     86.12351 [MHz]
  Nuclear repulsion = 3587.195054864559097

  Charge       = 0
  Multiplicity = 1
  Electrons    = 238
  Nalpha       = 119
  Nbeta        = 119

  ==> Algorithm <==

  SCF Algorithm Type is DF.
  DIIS enabled.
  MOM disabled.
  Fractional occupation disabled.
  Guess Type is SAD.
  Energy threshold   = 1.00e-08
  Density threshold  = 1.00e-08
  Integral threshold = 1.00e-08

  ==> Primary Basis <==

  Basis Set: 6-31G*
    Blend: 6-31G*
    Number of shells: 262
    Number of basis function: 577
    Number of Cartesian functions: 577
    Spherical Harmonics?: false
    Max angular momentum: 2

   => Loading Basis Set <=

    Name: (6-31G* AUX)
    Role: JKFIT
    Keyword: DF_BASIS_SCF
    atoms 1                                                                                                entry O          line   221 file /home/dslochower/data/applications/anaconda3/envs/p4env/share/psi4/basis/cc-pvdz-jkfit.gbs 
    atoms 2-6, 8-9, 11, 13-15, 17, 19-20, 22-25, 27, 29, 31, 33-35, 39, 42, 44, 46, 48, 50, 52, 54, 56, 60 entry C          line   121 file /home/dslochower/data/applications/anaconda3/envs/p4env/share/psi4/basis/cc-pvdz-jkfit.gbs 
    atoms 7, 10, 12, 16, 18, 21, 26, 28, 30, 32, 36-38, 40-41, 43, 45, 47, 49, 51, 53, 55, 57-59, 61       entry H          line    51 file /home/dslochower/data/applications/anaconda3/envs/p4env/share/psi4/basis/cc-pvdz-jkfit.gbs 

  ==> Pre-Iterations <==

   -------------------------------------------------------
    Irrep   Nso     Nmo     Nalpha   Nbeta   Ndocc  Nsocc
   -------------------------------------------------------
     A        577     577       0       0       0       0
   -------------------------------------------------------
    Total     577     577     119     119     119       0
   -------------------------------------------------------

  ==> Integral Setup <==

  ==> DFJK: Density-Fitted J/K Matrices <==

    J tasked:                  Yes
    K tasked:                  Yes
    wK tasked:                  No
    OpenMP threads:              1
    Integrals threads:           1
    Memory (MB):              5722
    Algorithm:                Core
    Integral Cache:           NONE
    Schwarz Cutoff:          1E-08
    Fitting Condition:       1E-12

   => Auxiliary Basis Set <=

  Basis Set: (6-31G* AUX)
    Blend: CC-PVDZ-JKFIT
    Number of shells: 1074
    Number of basis function: 3485
    Number of Cartesian functions: 3485
    Spherical Harmonics?: false
    Max angular momentum: 3

  Minimum eigenvalue in the overlap matrix is 2.3544143592E-04.
  Using Symmetric Orthogonalization.

  SCF Guess: Superposition of Atomic Densities via on-the-fly atomic UHF.

  ==> Iterations <==

                           Total Energy        Delta E     RMS |[F,P]|

   @DF-RHF iter   0: -1394.37779924517486   -1.39438e+03   1.89438e-02 
   @DF-RHF iter   1: -1376.56979770877456    1.78080e+01   1.71006e-03 
   @DF-RHF iter   2: -1377.39379401250380   -8.23996e-01   5.87087e-04 DIIS
   @DF-RHF iter   3: -1377.50093221576299   -1.07138e-01   2.98684e-04 DIIS
   @DF-RHF iter   4: -1377.52319310127314   -2.22609e-02   9.46441e-05 DIIS
   @DF-RHF iter   5: -1377.52599941011067   -2.80631e-03   4.20954e-05 DIIS
   @DF-RHF iter   6: -1377.52656599379861   -5.66584e-04   1.27828e-05 DIIS
   @DF-RHF iter   7: -1377.52663026607888   -6.42723e-05   4.61715e-06 DIIS
   @DF-RHF iter   8: -1377.52663597983110   -5.71375e-06   1.37103e-06 DIIS
   @DF-RHF iter   9: -1377.52663673448342   -7.54652e-07   5.94456e-07 DIIS
   @DF-RHF iter  10: -1377.52663689135920   -1.56876e-07   2.67571e-07 DIIS
   @DF-RHF iter  11: -1377.52663693380191   -4.24427e-08   1.23103e-07 DIIS
   @DF-RHF iter  12: -1377.52663694392550   -1.01236e-08   5.62691e-08 DIIS
   @DF-RHF iter  13: -1377.52663694608418   -2.15869e-09   2.64552e-08 DIIS
   @DF-RHF iter  14: -1377.52663694660623   -5.22050e-10   1.25476e-08 DIIS
   @DF-RHF iter  15: -1377.52663694674106   -1.34833e-10   5.88083e-09 DIIS

  ==> Post-Iterations <==

    Orbital Energies (a.u.)
    -----------------------

    Doubly Occupied:                                                      

       1A    -20.585668     2A    -11.299342     3A    -11.281625  
       4A    -11.247358     5A    -11.245556     6A    -11.244409  
       7A    -11.239425     8A    -11.235726     9A    -11.235468  
      10A    -11.235309    11A    -11.231022    12A    -11.230980  
      13A    -11.230522    14A    -11.228464    15A    -11.228034  
      16A    -11.226825    17A    -11.226704    18A    -11.226682  
      19A    -11.225592    20A    -11.224215    21A    -11.224061  
      22A    -11.223149    23A    -11.222426    24A    -11.222064  
      25A    -11.221878    26A    -11.221174    27A    -11.220909  
      28A    -11.220349    29A    -11.220220    30A    -11.219491  
      31A    -11.219316    32A    -11.219038    33A    -11.217717  
      34A    -11.215488    35A    -11.215179    36A     -1.417597  
      37A     -1.193503    38A     -1.179316    39A     -1.165398  
      40A     -1.132162    41A     -1.114919    42A     -1.101984  
      43A     -1.074505    44A     -1.061104    45A     -1.034003  
      46A     -1.017719    47A     -1.013706    48A     -1.001568  
      49A     -0.996450    50A     -0.979447    51A     -0.972190  
      52A     -0.966862    53A     -0.951498    54A     -0.914238  
      55A     -0.884962    56A     -0.857380    57A     -0.842111  
      58A     -0.829135    59A     -0.827257    60A     -0.801361  
      61A     -0.796531    62A     -0.792578    63A     -0.777127  
      64A     -0.770254    65A     -0.737887    66A     -0.709743  
      67A     -0.696610    68A     -0.690783    69A     -0.685808  
      70A     -0.672473    71A     -0.667170    72A     -0.665897  
      73A     -0.657383    74A     -0.648323    75A     -0.633173  
      76A     -0.628622    77A     -0.614868    78A     -0.609404  
      79A     -0.604196    80A     -0.602693    81A     -0.594426  
      82A     -0.592365    83A     -0.587748    84A     -0.581320  
      85A     -0.574923    86A     -0.572376    87A     -0.568043  
      88A     -0.561633    89A     -0.557336    90A     -0.553965  
      91A     -0.539728    92A     -0.528196    93A     -0.526024  
      94A     -0.522020    95A     -0.514408    96A     -0.509905  
      97A     -0.505920    98A     -0.500955    99A     -0.495183  
     100A     -0.490072   101A     -0.482816   102A     -0.478356  
     103A     -0.474773   104A     -0.471302   105A     -0.466212  
     106A     -0.460603   107A     -0.453983   108A     -0.441356  
     109A     -0.436762   110A     -0.406697   111A     -0.373251  
     112A     -0.362238   113A     -0.341456   114A     -0.322104  
     115A     -0.308756   116A     -0.303223   117A     -0.277827  
     118A     -0.273344   119A     -0.262225  

    Virtual:                                                              

     120A      0.068925   121A      0.105806   122A      0.119242  
     123A      0.141125   124A      0.147511   125A      0.161373  
     126A      0.168592   127A      0.202039   128A      0.210966  
     129A      0.228738   130A      0.239262   131A      0.248745  
     132A      0.250869   133A      0.255515   134A      0.261856  
     135A      0.265374   136A      0.271507   137A      0.282987  
     138A      0.291817   139A      0.294359   140A      0.298134  
     141A      0.303780   142A      0.310610   143A      0.311372  
     144A      0.316222   145A      0.316657   146A      0.320364  
     147A      0.325654   148A      0.328669   149A      0.332591  
     150A      0.333922   151A      0.339460   152A      0.340721  
     153A      0.348916   154A      0.356219   155A      0.362256  
     156A      0.368385   157A      0.386089   158A      0.390389  
     159A      0.402599   160A      0.411965   161A      0.414559  
     162A      0.417773   163A      0.421406   164A      0.428231  
     165A      0.434032   166A      0.441491   167A      0.444213  
     168A      0.449215   169A      0.455153   170A      0.463896  
     171A      0.476448   172A      0.483588   173A      0.488917  
     174A      0.494648   175A      0.502237   176A      0.506874  
     177A      0.508124   178A      0.512886   179A      0.520939  
     180A      0.529427   181A      0.544561   182A      0.553930  
     183A      0.574964   184A      0.583018   185A      0.591714  
     186A      0.598533   187A      0.613305   188A      0.618201  
     189A      0.628357   190A      0.643513   191A      0.659603  
     192A      0.682175   193A      0.691065   194A      0.702243  
     195A      0.704913   196A      0.718412   197A      0.720426  
     198A      0.734942   199A      0.737528   200A      0.742368  
     201A      0.746786   202A      0.749071   203A      0.754257  
     204A      0.756772   205A      0.761073   206A      0.766109  
     207A      0.767345   208A      0.774320   209A      0.778733  
     210A      0.781513   211A      0.788363   212A      0.788516  
     213A      0.792472   214A      0.797221   215A      0.801264  
     216A      0.802871   217A      0.808910   218A      0.814226  
     219A      0.815559   220A      0.820356   221A      0.826479  
     222A      0.829211   223A      0.831909   224A      0.834349  
     225A      0.837588   226A      0.840020   227A      0.843597  
     228A      0.849905   229A      0.851869   230A      0.855040  
     231A      0.856968   232A      0.859594   233A      0.862832  
     234A      0.865684   235A      0.869773   236A      0.873631  
     237A      0.877285   238A      0.884799   239A      0.888473  
     240A      0.890477   241A      0.895836   242A      0.902987  
     243A      0.907999   244A      0.911703   245A      0.917078  
     246A      0.921235   247A      0.929410   248A      0.936109  
     249A      0.945021   250A      0.946272   251A      0.950182  
     252A      0.957362   253A      0.973195   254A      0.983877  
     255A      0.989461   256A      0.996455   257A      1.004201  
     258A      1.012210   259A      1.034809   260A      1.042811  
     261A      1.049927   262A      1.064657   263A      1.068414  
     264A      1.076157   265A      1.083252   266A      1.084631  
     267A      1.092616   268A      1.094462   269A      1.109841  
     270A      1.113826   271A      1.113959   272A      1.118087  
     273A      1.119495   274A      1.126000   275A      1.127474  
     276A      1.134089   277A      1.137372   278A      1.138137  
     279A      1.139923   280A      1.146010   281A      1.150120  
     282A      1.151361   283A      1.155176   284A      1.156990  
     285A      1.164461   286A      1.167409   287A      1.171447  
     288A      1.175067   289A      1.180711   290A      1.184752  
     291A      1.185909   292A      1.194277   293A      1.196503  
     294A      1.205982   295A      1.209275   296A      1.211126  
     297A      1.214323   298A      1.216877   299A      1.228367  
     300A      1.233193   301A      1.236742   302A      1.246235  
     303A      1.254914   304A      1.258869   305A      1.262739  
     306A      1.268119   307A      1.274250   308A      1.275288  
     309A      1.286967   310A      1.294335   311A      1.294976  
     312A      1.304464   313A      1.306412   314A      1.311997  
     315A      1.330797   316A      1.332676   317A      1.341602  
     318A      1.352669   319A      1.355561   320A      1.367493  
     321A      1.377979   322A      1.388770   323A      1.395520  
     324A      1.408957   325A      1.416384   326A      1.427037  
     327A      1.439862   328A      1.447396   329A      1.455294  
     330A      1.462915   331A      1.466842   332A      1.473066  
     333A      1.479536   334A      1.489238   335A      1.501557  
     336A      1.509832   337A      1.522325   338A      1.527973  
     339A      1.531930   340A      1.536336   341A      1.538560  
     342A      1.549217   343A      1.555571   344A      1.568390  
     345A      1.572209   346A      1.584353   347A      1.599958  
     348A      1.615868   349A      1.635289   350A      1.647463  
     351A      1.662254   352A      1.670369   353A      1.680656  
     354A      1.683150   355A      1.699112   356A      1.722310  
     357A      1.725514   358A      1.727212   359A      1.733894  
     360A      1.738901   361A      1.742691   362A      1.746575  
     363A      1.757546   364A      1.759757   365A      1.762169  
     366A      1.769912   367A      1.779015   368A      1.784375  
     369A      1.788063   370A      1.791482   371A      1.794217  
     372A      1.797096   373A      1.805195   374A      1.806442  
     375A      1.821280   376A      1.832404   377A      1.840635  
     378A      1.847988   379A      1.858615   380A      1.862200  
     381A      1.889155   382A      1.899557   383A      1.908945  
     384A      1.931231   385A      1.941309   386A      1.971152  
     387A      1.989787   388A      2.008634   389A      2.017186  
     390A      2.031683   391A      2.043740   392A      2.071471  
     393A      2.081899   394A      2.087672   395A      2.094152  
     396A      2.105338   397A      2.109279   398A      2.121065  
     399A      2.125493   400A      2.128105   401A      2.139318  
     402A      2.144962   403A      2.152660   404A      2.168669  
     405A      2.177288   406A      2.189285   407A      2.200496  
     408A      2.207724   409A      2.214050   410A      2.217312  
     411A      2.226329   412A      2.241225   413A      2.243220  
     414A      2.251731   415A      2.254688   416A      2.263613  
     417A      2.267422   418A      2.275435   419A      2.278948  
     420A      2.281405   421A      2.294731   422A      2.299856  
     423A      2.306345   424A      2.307223   425A      2.314143  
     426A      2.327813   427A      2.333637   428A      2.338336  
     429A      2.359164   430A      2.360951   431A      2.380042  
     432A      2.386979   433A      2.400425   434A      2.408863  
     435A      2.409157   436A      2.414251   437A      2.431409  
     438A      2.443892   439A      2.444520   440A      2.454883  
     441A      2.458659   442A      2.472549   443A      2.482102  
     444A      2.487208   445A      2.494220   446A      2.500243  
     447A      2.511831   448A      2.516625   449A      2.528931  
     450A      2.536074   451A      2.540474   452A      2.547941  
     453A      2.553963   454A      2.557513   455A      2.564403  
     456A      2.569254   457A      2.580324   458A      2.586602  
     459A      2.592276   460A      2.600543   461A      2.609971  
     462A      2.612713   463A      2.620839   464A      2.630106  
     465A      2.631892   466A      2.636463   467A      2.649179  
     468A      2.650857   469A      2.651545   470A      2.664782  
     471A      2.670497   472A      2.679231   473A      2.682130  
     474A      2.688071   475A      2.693359   476A      2.706167  
     477A      2.718264   478A      2.729593   479A      2.749325  
     480A      2.759687   481A      2.773705   482A      2.793400  
     483A      2.808451   484A      2.818835   485A      2.836736  
     486A      2.857234   487A      2.900306   488A      2.904037  
     489A      2.914224   490A      2.918035   491A      2.928625  
     492A      2.942388   493A      2.960971   494A      2.977600  
     495A      2.988157   496A      2.994058   497A      3.010069  
     498A      3.012990   499A      3.018265   500A      3.023211  
     501A      3.034892   502A      3.040765   503A      3.047562  
     504A      3.053286   505A      3.060434   506A      3.067980  
     507A      3.074007   508A      3.075361   509A      3.092978  
     510A      3.101423   511A      3.118343   512A      3.120375  
     513A      3.136648   514A      3.147493   515A      3.150540  
     516A      3.170081   517A      3.179732   518A      3.188977  
     519A      3.216745   520A      3.220217   521A      3.239912  
     522A      3.255292   523A      3.262738   524A      3.287248  
     525A      3.290171   526A      3.311045   527A      3.327973  
     528A      3.347579   529A      3.374345   530A      3.378904  
     531A      3.404543   532A      3.441982   533A      3.530548  
     534A      3.578802   535A      3.612101   536A      3.683455  
     537A      3.744022   538A      3.788349   539A      3.804284  
     540A      3.858628   541A      3.929081   542A      3.972482  
     543A      4.509401   544A      4.512793   545A      4.531405  
     546A      4.536510   547A      4.542062   548A      4.548809  
     549A      4.552503   550A      4.559334   551A      4.565151  
     552A      4.571812   553A      4.598003   554A      4.610650  
     555A      4.627602   556A      4.650494   557A      4.658048  
     558A      4.673258   559A      4.685342   560A      4.728579  
     561A      4.752774   562A      4.758837   563A      4.786480  
     564A      4.814362   565A      4.829257   566A      4.855979  
     567A      4.872870   568A      4.886242   569A      4.929495  
     570A      4.963245   571A      4.999715   572A      5.079248  
     573A      5.104737   574A      5.240652   575A      5.272449  
     576A      5.280583   577A      5.357600  

    Final Occupation by Irrep:
              A 
    DOCC [   119 ]

  Energy converged.

  @DF-RHF Final Energy: -1377.52663694674106

   => Energetics <=

    Nuclear Repulsion Energy =           3587.1950548645590970
    One-Electron Energy =               -9010.0491611143716000
    Two-Electron Energy =                4045.3274693030716662
    Total Energy =                      -1377.5266369467408367



Properties will be evaluated at   0.000000,   0.000000,   0.000000 Bohr

Properties computed using the SCF density matrix

  Nuclear Dipole Moment: (a.u.)
     X:    -5.6451      Y:     8.3702      Z:    -1.1242

  Electronic Dipole Moment: (a.u.)
     X:     5.3329      Y:    -7.4622      Z:     1.3694

  Dipole Moment: (a.u.)
     X:    -0.3122      Y:     0.9080      Z:     0.2452     Total:     0.9910

  Dipole Moment: (Debye)
     X:    -0.7936      Y:     2.3079      Z:     0.6232     Total:     2.5189


*** tstop() called on warthog at Fri Nov 17 11:40:39 2017
Module time:
	user time   =     795.65 seconds =      13.26 minutes
	system time =      10.04 seconds =       0.17 minutes
	total time  =        806 seconds =      13.43 minutes
Total time:
	user time   =     795.65 seconds =      13.26 minutes
	system time =      10.04 seconds =       0.17 minutes
	total time  =        806 seconds =      13.43 minutes

*** tstart() called on warthog
*** at Fri Nov 17 11:40:39 2017


         ------------------------------------------------------------
                                   SCF GRAD                          
                          Rob Parrish, Justin Turney,                
                       Andy Simmonett, and Alex Sokolov              
         ------------------------------------------------------------

  ==> Geometry <==

    Molecular point group: c1
    Full point group: C1

    Geometry (in Angstrom), charge = 0, multiplicity = 1:

       Center              X                  Y                   Z               Mass       
    ------------   -----------------  -----------------  -----------------  -----------------
           O         -1.367902803504     2.383850568663     2.988838035548    15.994914619560
           C         -1.073226157616     0.212522486032     1.363761789173    12.000000000000
           C         -0.207358255594     1.012661239257    -1.642074921576    12.000000000000
           C         -0.930642240591     2.689919333681     1.749739284335    12.000000000000
           C          0.421602601148    -0.158933006819    -1.816450548278    12.000000000000
           C         -2.068973639135    -0.452165047537     0.710331117364    12.000000000000
           H         -2.555025374621     0.016433717354    -0.125291339625     1.007825032070
           C          0.330795412189    -1.051177716956    -3.016985931141    12.000000000000
           C          2.036913572150    -0.395782682870     0.227098810982    12.000000000000
           H          1.773165112999     0.538317519667     0.677966240944     1.007825032070
           C         -0.423802743185     4.257534216824     0.001373596449    12.000000000000
           H         -0.347005552318     5.276593089652    -0.336238284861     1.007825032070
           C         -0.719576503383     1.593698314653     0.887598078928    12.000000000000
           C         -0.447340573612    -0.414531908166     2.493833949757    12.000000000000
           C          2.840977877882    -2.791819281196    -0.964669980552    12.000000000000
           H          3.171051128387    -3.699449185012    -1.438578495484     1.007825032070
           C         -0.741470757212     3.994441147124     1.327004686062    12.000000000000
           H         -0.899464358157     4.813388658380     2.000778144640     1.007825032070
           C          1.851021644986    -2.012935149450    -1.535160999028    12.000000000000
           C         -0.711641035872     1.887314352387    -2.792200947362    12.000000000000
           H         -0.275096707249     1.574894281381    -3.729253232549     1.007825032070
           C         -0.350396554798     1.885419647680    -0.429347864600    12.000000000000
           C         -0.268532136245     3.212767389315    -0.872087750309    12.000000000000
           C          1.411844203845    -0.831858150227    -0.928242836884    12.000000000000
           C          3.422181231884    -2.370588819251     0.220174390063    12.000000000000
           H          4.193455282501    -2.962720914165     0.680560708752     1.007825032070
           C          0.597012301805     0.193831213782     3.245223267338    12.000000000000
           H          0.942755965043     1.169807724099     2.965347627459     1.007825032070
           C         -2.489856304658    -1.741679970569     1.103016395538    12.000000000000
           H         -3.276888163452    -2.228538444623     0.555018009025     1.007825032070
           C         -0.391773205156    -2.031597974766    -5.086620844124    12.000000000000
           H         -1.003382005348    -1.983855216693    -5.970452589474     1.007825032070
           C          1.154506805673    -2.166665210272    -2.817384173910    12.000000000000
           C         -0.872618224221    -1.701490705197     2.883901790029    12.000000000000
           C         -2.239500331029     1.937094437074    -2.924990741705    12.000000000000
           H         -2.524894684763     2.568580108499    -3.761747713841     1.007825032070
           H         -2.698274867305     2.343489922954    -2.029853854425     1.007825032070
           H         -2.658088680813     0.950471763657    -3.091594540679     1.007825032070
           C         -0.137363238888     3.261731365820    -2.373105071853    12.000000000000
           H          0.902124524000     3.338730455351    -2.683415915065     1.007825032070
           H         -0.678114230022     4.093961941516    -2.812327780952     1.007825032070
           C         -0.464199526857    -1.005950363790    -4.154670594368    12.000000000000
           H         -1.147657425626    -0.202229474096    -4.335546219288     1.007825032070
           C          0.447438401485    -3.116496883392    -4.888298289357    12.000000000000
           H          0.488080454933    -3.904995270694    -5.618984900354     1.007825032070
           C          3.030583576662    -1.174214949650     0.801353966761    12.000000000000
           H          3.499344630858    -0.843426877878     1.710552726307     1.007825032070
           C          1.221833314871    -3.192420884480    -3.742327016572    12.000000000000
           H          1.859458340531    -4.042300119849    -3.574312034476     1.007825032070
           C         -0.260187533621    -2.335274803535     3.999709109556    12.000000000000
           H         -0.598739206366    -3.317203664858     4.282102558888     1.007825032070
           C          0.728916733110    -1.723286697848     4.695687362381    12.000000000000
           H          1.185879505302    -2.210637832020     5.538862306978     1.007825032070
           C         -1.906529545316    -2.351663362444     2.162756887906    12.000000000000
           H         -2.219167228600    -3.333864284666     2.472186102825     1.007825032070
           C         -1.626423308280     3.389652858724     3.924077710589    12.000000000000
           H         -2.409933500850     4.059448518487     3.583143095010     1.007825032070
           H         -0.734377680906     3.966857559701     4.148687155299     1.007825032070
           H         -1.955696875446     2.885420524302     4.820423074564     1.007825032070
           C          1.164216485992    -0.434346715241     4.306127499244    12.000000000000
           H          1.951856677383     0.049076612735     4.857449445738     1.007825032070

  Nuclear repulsion = 3587.195054864559097

  ==> Basis Set <==

  Basis Set: 6-31G*
    Blend: 6-31G*
    Number of shells: 262
    Number of basis function: 577
    Number of Cartesian functions: 577
    Spherical Harmonics?: false
    Max angular momentum: 2

  ==> DFJKGrad: Density-Fitted SCF Gradients <==

    Gradient:                    1
    J tasked:                  Yes
    K tasked:                  Yes
    wK tasked:                  No
    OpenMP threads:              1
    Integrals threads:           1
    Memory (MB):              5722
    Schwarz Cutoff:          1E-08
    Fitting Condition:       1E-12

   => Auxiliary Basis Set <=

  Basis Set: (6-31G* AUX)
    Blend: CC-PVDZ-JKFIT
    Number of shells: 1074
    Number of basis function: 3485
    Number of Cartesian functions: 3485
    Spherical Harmonics?: false
    Max angular momentum: 3


  -Total Gradient:
     Atom            X                  Y                   Z
    ------   -----------------  -----------------  -----------------
       1        0.000064087214    -0.000312529388    -0.000278103481
       2       -0.000122034308    -0.000126947606    -0.000048892158
       3        0.000056840410     0.000160652822    -0.000081003123
       4        0.000114624573     0.000090879785    -0.000065142191
       5        0.000035259032    -0.000059058606    -0.000014960465
       6        0.000058228055    -0.000290779326     0.000260971595
       7       -0.000047656074     0.000168499930    -0.000181639228
       8        0.000007179188    -0.000079964567    -0.000070866078
       9        0.000165586982    -0.000214809022    -0.000009115204
      10       -0.000100959348     0.000138301974     0.000069805090
      11       -0.000010782422    -0.000323296278     0.000161415333
      12        0.000018486228     0.000209476773    -0.000108113005
      13       -0.000014155756    -0.000043272074     0.000099193311
      14        0.000089680818    -0.000069752106     0.000095950516
      15        0.000014595702     0.000208805344     0.000205364874
      16        0.000058626235    -0.000151715879    -0.000078872078
      17        0.000061732609    -0.000082214692    -0.000303980805
      18       -0.000018138992     0.000103638654     0.000063083448
      19        0.000066192044     0.000001751567     0.000093073854
      20       -0.000370488791     0.000204170043     0.000316007014
      21        0.000169297230    -0.000186364580    -0.000226188270
      22        0.000015084115    -0.000019740492    -0.000009919457
      23       -0.000053785843     0.000012636101    -0.000076252387
      24        0.000067702375    -0.000056200930     0.000082862613
      25       -0.000398109598     0.000330545963    -0.000199499957
      26        0.000178419049    -0.000128001400     0.000120047438
      27        0.000015977187    -0.000354058715     0.000241383455
      28        0.000037760353     0.000294431395    -0.000051637487
      29        0.000446794592     0.000241832055     0.000326629905
      30       -0.000170471894    -0.000136272687    -0.000093107851
      31        0.000319894228    -0.000045216666     0.000458202419
      32       -0.000132874517     0.000001004445    -0.000200710595
      33       -0.000040357465    -0.000028446509    -0.000074068672
      34       -0.000021196899     0.000082701382    -0.000056617414
      35        0.000068188351    -0.000084819475    -0.000082672858
      36       -0.000003472151     0.000072431286    -0.000072661021
      37        0.000019608983     0.000059577842     0.000152886391
      38        0.000015539346    -0.000118183271    -0.000014975665
      39       -0.000029339801    -0.000128432936     0.000138734252
      40        0.000251088823    -0.000040320820     0.000041845020
      41       -0.000180910224     0.000139112447    -0.000015758853
      42        0.000077807655    -0.000184895542    -0.000088674181
      43       -0.000100894212     0.000146814200    -0.000024620912
      44       -0.000037468844     0.000433006059     0.000371920587
      45       -0.000001418770    -0.000174648974    -0.000179035130
      46       -0.000211411440    -0.000221703998    -0.000502284582
      47        0.000104185820     0.000083093243     0.000212050857
      48       -0.000213098203     0.000166114601    -0.000174132967
      49        0.000109265420    -0.000150961850     0.000033894539
      50        0.000221910263     0.000315307371     0.000023172119
      51       -0.000049183239    -0.000211589739     0.000091083496
      52       -0.000254769679     0.000238826683    -0.000441111721
      53        0.000071464710    -0.000143253123     0.000179818078
      54        0.000004915951     0.000298505739    -0.000203453305
      55       -0.000093942858    -0.000210019763     0.000038145982
      56        0.000060019112    -0.000407887261    -0.000212989976
      57       -0.000352336179     0.000379822410    -0.000013080106
      58        0.000328936918     0.000354984426     0.000226259628
      59       -0.000130299119    -0.000069900322     0.000363616656
      60       -0.000408756149    -0.000218955772    -0.000296829173
      61        0.000173333200     0.000137289803     0.000083551879


*** tstop() called on warthog at Fri Nov 17 11:44:03 2017
Module time:
	user time   =     200.10 seconds =       3.34 minutes
	system time =       4.35 seconds =       0.07 minutes
	total time  =        204 seconds =       3.40 minutes
Total time:
	user time   =     995.76 seconds =      16.60 minutes
	system time =      14.39 seconds =       0.24 minutes
	total time  =       1010 seconds =      16.83 minutes

			-----------------------------------------
			 OPTKING 2.0: for geometry optimizations 
			  - R.A. King,  Bethel University        
			-----------------------------------------

	Internal coordinates to be generated automatically.
	Detected frag 1 with atoms:  1 2 3 4 5 6 7 8 9 10 11 12 13 14 15 16 17 18 19 20
	 21 22 23 24 25 26 27 28 29 30 31 32 33 34 35 36 37 38 39 40
	 41 42 43 44 45 46 47 48 49 50 51 52 53 54 55 56 57 58 59 60
	 61
	---Fragment 1 Bond Connectivity---
	 1 : 4 56
	 2 : 6 13 14
	 3 : 5 20 22
	 4 : 1 13 17
	 5 : 3 8 24
	 6 : 2 7 29
	 7 : 6
	 8 : 5 33 42
	 9 : 10 24 46
	 10 : 9
	 11 : 12 17 23
	 12 : 11
	 13 : 2 4 22
	 14 : 2 27 34
	 15 : 16 19 25
	 16 : 15
	 17 : 4 11 18
	 18 : 17
	 19 : 15 24 33
	 20 : 3 21 35 39
	 21 : 20
	 22 : 3 13 23
	 23 : 11 22 39
	 24 : 5 9 19
	 25 : 15 26 46
	 26 : 25
	 27 : 14 28 60
	 28 : 27
	 29 : 6 30 54
	 30 : 29
	 31 : 32 42 44
	 32 : 31
	 33 : 8 19 48
	 34 : 14 50 54
	 35 : 20 36 37 38
	 36 : 35
	 37 : 35
	 38 : 35
	 39 : 20 23 40 41
	 40 : 39
	 41 : 39
	 42 : 8 31 43
	 43 : 42
	 44 : 31 45 48
	 45 : 44
	 46 : 9 25 47
	 47 : 46
	 48 : 33 44 49
	 49 : 48
	 50 : 34 51 52
	 51 : 50
	 52 : 50 53 60
	 53 : 52
	 54 : 29 34 55
	 55 : 54
	 56 : 1 57 58 59
	 57 : 56
	 58 : 56
	 59 : 56
	 60 : 27 52 61
	 61 : 60

	Assuming in current code that numbering for constraints corresponds to unified fragment.
	Fixed dihedral atom list: 
	    17     4     2    15
	---Fragment 1 Geometry and Gradient---
	 O          -2.5849616750        4.5048247165        5.6480853427
	 C          -2.0281035165        0.4016092957        2.5771362920
	 C          -0.3918503145        1.9136524076       -3.1030718915
	 C          -1.7586589624        5.0832108602        3.3065280513
	 C           0.7967134531       -0.3003398564       -3.4325940702
	 C          -3.9097935541       -0.8544681067        1.3423312755
	 H          -4.8282982206        0.0310552251       -0.2367663187
	 C           0.6251127351       -1.9864380020       -5.7012771566
	 C           3.8492088077       -0.7479208788        0.4291545579
	 H           3.3507964520        1.0172726847        1.2811705227
	 C          -0.8008711190        8.0455736712        0.0025957211
	 H          -0.6557454605        9.9713158541       -0.6353982738
	 C          -1.3598025231        3.0116533531        1.6773172852
	 C          -0.8453511723       -0.7833517798        4.7126631859
	 C           5.3686701388       -5.2757738540       -1.8229620719
	 H           5.9924181860       -6.9909458022       -2.7185193771
	 C          -1.4011766667        7.5483998220        2.5076754337
	 H          -1.6997413032        9.0959863355        3.7809227460
	 C           3.4979239751       -3.8038961557       -2.9010338581
	 C          -1.3448066627        3.5665072527       -5.2764950985
	 H          -0.5198574368        2.9761188801       -7.0472672897
	 C          -0.6621535265        3.5629267797       -0.8113498798
	 C          -0.5074521954        6.0712504945       -1.6480070119
	 C           2.6679988876       -1.5719840853       -1.7541247465
	 C           6.4669853054       -4.4797636421        0.4160692987
	 H           7.9244820344       -5.5987311359        1.2860733563
	 C           1.1281897484        0.3662879101        6.1325832153
	 H           1.7815505841        2.2106162267        5.6036949047
	 C          -4.7051465260       -3.2912981555        2.0843989076
	 H          -6.1924211970       -4.2113273369        1.0488320359
	 C          -0.7403440639       -3.8391637844       -9.6123203372
	 H          -1.8961171968       -3.7489430468      -11.2825202835
	 C           2.1817016813       -4.0944038691       -5.3240844998
	 C          -1.6490094623       -3.2153514505        5.4497845773
	 C          -4.2320423002        3.6605779796       -5.5274314430
	 H          -4.7713594686        4.8539129554       -7.1086729602
	 H          -5.0990005305        4.4285541496       -3.8358678746
	 H          -5.0230596437        1.7961313304       -5.8422669958
	 C          -0.2595789022        6.1637790004       -4.4845186704
	 H           1.7047682881        6.3092861921       -5.0709211801
	 H          -1.2814501816        7.7364668679       -5.3145293019
	 C          -0.8772099768       -1.9009706908       -7.8511895957
	 H          -2.1687582288       -0.3821583220       -8.1929949909
	 C           0.8455360401       -5.8893256036       -9.2375450227
	 H           0.9223383906       -7.3793716118      -10.6183426065
	 C           5.7269729827       -2.2189446760        1.5143395327
	 H           6.6128029969       -1.5938458123        3.2324761886
	 C           2.3089303451       -6.0328011726       -7.0719731610
	 H           3.5138670191       -7.6388401734       -6.7544708586
	 C          -0.4916831817       -4.4130298237        7.5583548283
	 H          -1.1314531251       -6.2686064536        8.0920011092
	 C           1.3774529993       -3.2565399074        8.8735631206
	 H           2.2409874916       -4.1775000815       10.4669328480
	 C          -3.6028187049       -4.4439997118        4.0870182102
	 H          -4.1936183051       -6.3000904622        4.6717546839
	 C          -3.0734946288        6.4055155885        7.4154321972
	 H          -4.5541143151        7.6712459505        6.7711591445
	 H          -1.3877726950        7.4962743960        7.8398825345
	 H          -3.6957314935        5.4526545691        9.1092794556
	 C           2.2000503179       -0.8207963385        8.1374016669
	 H           3.6884745709        0.0927413576        9.1792491568
	             0.0000640872       -0.0003125294       -0.0002781035
	            -0.0001220343       -0.0001269476       -0.0000488922
	             0.0000568404        0.0001606528       -0.0000810031
	             0.0001146246        0.0000908798       -0.0000651422
	             0.0000352590       -0.0000590586       -0.0000149605
	             0.0000582281       -0.0002907793        0.0002609716
	            -0.0000476561        0.0001684999       -0.0001816392
	             0.0000071792       -0.0000799646       -0.0000708661
	             0.0001655870       -0.0002148090       -0.0000091152
	            -0.0001009593        0.0001383020        0.0000698051
	            -0.0000107824       -0.0003232963        0.0001614153
	             0.0000184862        0.0002094768       -0.0001081130
	            -0.0000141558       -0.0000432721        0.0000991933
	             0.0000896808       -0.0000697521        0.0000959505
	             0.0000145957        0.0002088053        0.0002053649
	             0.0000586262       -0.0001517159       -0.0000788721
	             0.0000617326       -0.0000822147       -0.0003039808
	            -0.0000181390        0.0001036387        0.0000630834
	             0.0000661920        0.0000017516        0.0000930739
	            -0.0003704888        0.0002041700        0.0003160070
	             0.0001692972       -0.0001863646       -0.0002261883
	             0.0000150841       -0.0000197405       -0.0000099195
	            -0.0000537858        0.0000126361       -0.0000762524
	             0.0000677024       -0.0000562009        0.0000828626
	            -0.0003981096        0.0003305460       -0.0001995000
	             0.0001784190       -0.0001280014        0.0001200474
	             0.0000159772       -0.0003540587        0.0002413835
	             0.0000377604        0.0002944314       -0.0000516375
	             0.0004467946        0.0002418321        0.0003266299
	            -0.0001704719       -0.0001362727       -0.0000931079
	             0.0003198942       -0.0000452167        0.0004582024
	            -0.0001328745        0.0000010044       -0.0002007106
	            -0.0000403575       -0.0000284465       -0.0000740687
	            -0.0000211969        0.0000827014       -0.0000566174
	             0.0000681884       -0.0000848195       -0.0000826729
	            -0.0000034722        0.0000724313       -0.0000726610
	             0.0000196090        0.0000595778        0.0001528864
	             0.0000155393       -0.0001181833       -0.0000149757
	            -0.0000293398       -0.0001284329        0.0001387343
	             0.0002510888       -0.0000403208        0.0000418450
	            -0.0001809102        0.0001391124       -0.0000157589
	             0.0000778077       -0.0001848955       -0.0000886742
	            -0.0001008942        0.0001468142       -0.0000246209
	            -0.0000374688        0.0004330061        0.0003719206
	            -0.0000014188       -0.0001746490       -0.0001790351
	            -0.0002114114       -0.0002217040       -0.0005022846
	             0.0001041858        0.0000830932        0.0002120509
	            -0.0002130982        0.0001661146       -0.0001741330
	             0.0001092654       -0.0001509618        0.0000338945
	             0.0002219103        0.0003153074        0.0000231721
	            -0.0000491832       -0.0002115897        0.0000910835
	            -0.0002547697        0.0002388267       -0.0004411117
	             0.0000714647       -0.0001432531        0.0001798181
	             0.0000049160        0.0002985057       -0.0002034533
	            -0.0000939429       -0.0002100198        0.0000381460
	             0.0000600191       -0.0004078873       -0.0002129900
	            -0.0003523362        0.0003798224       -0.0000130801
	             0.0003289369        0.0003549844        0.0002262596
	            -0.0001302991       -0.0000699003        0.0003636167
	            -0.0004087561       -0.0002189558       -0.0002968292
	             0.0001733332        0.0001372898        0.0000835519

	Previous optimization step data not found.  Starting new optimization.

	---Fragment 1 Intrafragment Coordinates---
	 - Coordinate -           - BOHR/RAD -       - ANG/DEG -
	 R(1,4)           =         2.549548	       1.349163
	 R(1,56)          =         2.640986	       1.397549
	 R(2,6)           =         2.577447	       1.363926
	 R(2,13)          =         2.840533	       1.503146
	 R(2,14)          =         2.713579	       1.435964
	 R(3,5)           =         2.534370	       1.341131
	 R(3,20)          =         2.892028	       1.530395
	 R(3,22)          =         2.836399	       1.500958
	 R(4,13)          =         2.665476	       1.410509
	 R(4,17)          =         2.615935	       1.384293
	 R(5,8)           =         2.831836	       1.498543
	 R(5,24)          =         2.817099	       1.490745
	 R(6,7)           =         2.030111	       1.074289
	 R(6,29)          =         2.668594	       1.412159
	 R(8,33)          =         2.647407	       1.400947
	 R(8,42)          =         2.624195	       1.388664
	 R(9,10)          =         2.022438	       1.070228
	 R(9,24)          =         2.615539	       1.384084
	 R(9,46)          =         2.620598	       1.386761
	 R(11,12)         =         2.033859	       1.076272
	 R(11,17)         =         2.623542	       1.388319
	 R(11,23)         =         2.590084	       1.370614
	 R(13,22)         =         2.642741	       1.398478
	 R(14,27)         =         2.689369	       1.423153
	 R(14,34)         =         2.665302	       1.410417
	 R(15,16)         =         2.032953	       1.075793
	 R(15,19)         =         2.613112	       1.382799
	 R(15,25)         =         2.617860	       1.385312
	 R(17,18)         =         2.026160	       1.072198
	 R(19,24)         =         2.643030	       1.398631
	 R(19,33)         =         2.772726	       1.467263
	 R(20,21)         =         2.040768	       1.079928
	 R(20,35)         =         2.899646	       1.534427
	 R(20,39)         =         2.924169	       1.547404
	 R(22,23)         =         2.648701	       1.401632
	 R(23,39)         =         2.848825	       1.507533
	 R(25,26)         =         2.033050	       1.075844
	 R(25,46)         =         2.620137	       1.386517
	 R(27,28)         =         2.026857	       1.072567
	 R(27,60)         =         2.564635	       1.357146
	 R(29,30)         =         2.032446	       1.075524
	 R(29,54)         =         2.560143	       1.354769
	 R(31,32)         =         2.033106	       1.075873
	 R(31,42)         =         2.622386	       1.387707
	 R(31,44)         =         2.618900	       1.385862
	 R(33,48)         =         2.613175	       1.382833
	 R(34,50)         =         2.686988	       1.421893
	 R(34,54)         =         2.680313	       1.418361
	 R(35,36)         =         2.053104	       1.086456
	 R(35,37)         =         2.050071	       1.084851
	 R(35,38)         =         2.049632	       1.084619
	 R(39,40)         =         2.055164	       1.087546
	 R(39,41)         =         2.050972	       1.085328
	 R(42,43)         =         2.022800	       1.070420
	 R(44,45)         =         2.032914	       1.075772
	 R(44,48)         =         2.617596	       1.385172
	 R(46,47)         =         2.031609	       1.075081
	 R(48,49)         =         2.032742	       1.075681
	 R(50,51)         =         2.034023	       1.076358
	 R(50,52)         =         2.561428	       1.355449
	 R(52,53)         =         2.032901	       1.075765
	 R(52,60)         =         2.674219	       1.415136
	 R(54,55)         =         2.033724	       1.076200
	 R(56,57)         =         2.051681	       1.085703
	 R(56,58)         =         2.052211	       1.085983
	 R(56,59)         =         2.040647	       1.079864
	 R(60,61)         =         2.033569	       1.076119
	 B(1,4,13)        =         2.019226	     115.693102
	 B(1,4,17)        =         2.139502	     122.584425
	 B(1,56,57)       =         1.946948	     111.551916
	 B(1,56,58)       =         1.948707	     111.652673
	 B(1,56,59)       =         1.850243	     106.011133
	 B(2,6,7)         =         2.083326	     119.365785
	 B(2,6,29)        =         2.128664	     121.963447
	 B(2,13,4)        =         2.077490	     119.031412
	 B(2,13,22)       =         2.155667	     123.510616
	 B(2,14,27)       =         2.151588	     123.276909
	 B(2,14,34)       =         2.076791	     118.991386
	 B(3,5,8)         =         2.209166	     126.575867
	 B(3,5,24)        =         2.250283	     128.931693
	 B(3,20,21)       =         1.932166	     110.704952
	 B(3,20,35)       =         1.995093	     114.310385
	 B(3,20,39)       =         1.753613	     100.474596
	 B(3,22,13)       =         2.297925	     131.661414
	 B(3,22,23)       =         1.864885	     106.850053
	 B(4,1,56)        =         2.107483	     120.749865
	 B(4,13,22)       =         2.040896	     116.934720
	 B(4,17,11)       =         2.096063	     120.095558
	 B(4,17,18)       =         2.103367	     120.514026
	 B(5,3,20)        =         2.160474	     123.786036
	 B(5,3,22)        =         2.288569	     131.125337
	 B(5,8,33)        =         1.901084	     108.924063
	 B(5,8,42)        =         2.307218	     132.193877
	 B(5,24,9)        =         2.285130	     130.928297
	 B(5,24,19)       =         1.908395	     109.342970
	 B(6,2,13)        =         2.057586	     117.891022
	 B(6,2,14)        =         2.074217	     118.843890
	 B(6,29,30)       =         2.082622	     119.325477
	 B(6,29,54)       =         2.094782	     120.022146
	 B(7,6,29)        =         2.071180	     118.669871
	 B(8,5,24)        =         1.822250	     104.407212
	 B(8,33,19)       =         1.896730	     108.674646
	 B(8,33,48)       =         2.122290	     121.598250
	 B(8,42,31)       =         2.090068	     119.752096
	 B(8,42,43)       =         2.127537	     121.898917
	 B(9,24,19)       =         2.078841	     119.108843
	 B(9,46,25)       =         2.109648	     120.873929
	 B(9,46,47)       =         2.082792	     119.335209
	 B(10,9,24)       =         2.112214	     121.020975
	 B(10,9,46)       =         2.085258	     119.476456
	 B(11,17,18)      =         2.081742	     119.275019
	 B(11,23,22)      =         2.110576	     120.927102
	 B(11,23,39)      =         2.239058	     128.288551
	 B(12,11,17)      =         2.088954	     119.688252
	 B(12,11,23)      =         2.110350	     120.914124
	 B(13,2,14)       =         2.150762	     123.229585
	 B(13,4,17)       =         2.123852	     121.687776
	 B(13,22,23)      =         2.106471	     120.691878
	 B(14,27,28)      =         2.080319	     119.193509
	 B(14,27,60)      =         2.119474	     121.436889
	 B(14,34,50)      =         2.087333	     119.595388
	 B(14,34,54)      =         2.091459	     119.831778
	 B(15,19,24)      =         2.119315	     121.427802
	 B(15,19,33)      =         2.267068	     129.893417
	 B(15,25,26)      =         2.093729	     119.961817
	 B(15,25,46)      =         2.097150	     120.157867
	 B(16,15,19)      =         2.109625	     120.872597
	 B(16,15,25)      =         2.099699	     120.303915
	 B(17,11,23)      =         2.082853	     119.338697
	 B(19,15,25)      =         2.073670	     118.812561
	 B(19,33,48)      =         2.264161	     129.726851
	 B(20,3,22)       =         1.816752	     104.092245
	 B(20,35,36)      =         1.925238	     110.308016
	 B(20,35,37)      =         1.941025	     111.212528
	 B(20,35,38)      =         1.947720	     111.596129
	 B(20,39,23)      =         1.780866	     102.036093
	 B(20,39,40)      =         1.918065	     109.897034
	 B(20,39,41)      =         1.967701	     112.740984
	 B(21,20,35)      =         1.914312	     109.681974
	 B(21,20,39)      =         1.919778	     109.995181
	 B(22,23,39)      =         1.928740	     110.508686
	 B(23,39,40)      =         1.949334	     111.688585
	 B(23,39,41)      =         1.965459	     112.612484
	 B(24,9,46)       =         2.085647	     119.498762
	 B(24,19,33)      =         1.895079	     108.580036
	 B(25,46,47)      =         2.090742	     119.790684
	 B(26,25,46)      =         2.092102	     119.868612
	 B(27,14,34)      =         2.054779	     117.730181
	 B(27,60,52)      =         2.103916	     120.545531
	 B(27,60,61)      =         2.092618	     119.898200
	 B(28,27,60)      =         2.083392	     119.369588
	 B(29,54,34)      =         2.100393	     120.343671
	 B(29,54,55)      =         2.106850	     120.713608
	 B(30,29,54)      =         2.105776	     120.652069
	 B(31,42,43)      =         2.065523	     118.345728
	 B(31,44,45)      =         2.093777	     119.964559
	 B(31,44,48)      =         2.094211	     119.989462
	 B(32,31,42)      =         2.082007	     119.290192
	 B(32,31,44)      =         2.090406	     119.771439
	 B(33,8,42)       =         2.070611	     118.637298
	 B(33,48,44)      =         2.077722	     119.044705
	 B(33,48,49)      =         2.106509	     120.694057
	 B(34,50,51)      =         2.068076	     118.492018
	 B(34,50,52)      =         2.112958	     121.063572
	 B(34,54,55)      =         2.075941	     118.942659
	 B(35,20,39)      =         1.943525	     111.355777
	 B(36,35,37)      =         1.882483	     107.858312
	 B(36,35,38)      =         1.884979	     108.001322
	 B(37,35,38)      =         1.880000	     107.716062
	 B(40,39,41)      =         1.882268	     107.845988
	 B(42,31,44)      =         2.110740	     120.936501
	 B(44,48,49)      =         2.098926	     120.259582
	 B(45,44,48)      =         2.095126	     120.041854
	 B(50,34,54)      =         2.104392	     120.572800
	 B(50,52,53)      =         2.103518	     120.522705
	 B(50,52,60)      =         2.087891	     119.627340
	 B(51,50,52)      =         2.102151	     120.444378
	 B(52,60,61)      =         2.086651	     119.556268
	 B(53,52,60)      =         2.091773	     119.849792
	 B(57,56,58)      =         1.906926	     109.258814
	 B(57,56,59)      =         1.905693	     109.188178
	 B(58,56,59)      =         1.903894	     109.085085
	 D(1,4,13,2)      =         0.068931	       3.949440
	 D(1,4,13,22)     =         3.070848	     175.946656
	 D(1,4,17,11)     =        -3.024909	    -173.314503
	 D(1,4,17,18)     =         0.048031	       2.751996
	 D(2,6,29,30)     =        -3.137664	    -179.774894
	 D(2,6,29,54)     =         0.007424	       0.425386
	 D(2,13,4,17)     =        -3.036182	    -173.960425
	 D(2,13,22,3)     =        -0.000053	      -0.003012
	 D(2,13,22,23)    =         2.937868	     168.327456
	 D(2,14,27,28)    =         0.001506	       0.086306
	 D(2,14,27,60)    =        -3.139349	    -179.871453
	 D(2,14,34,50)    =         3.139815	     179.898131
	 D(2,14,34,54)    =        -0.002937	      -0.168297
	 D(3,5,8,33)      =         3.124190	     179.002908
	 D(3,5,8,42)      =        -0.120827	      -6.922892
	 D(3,5,24,9)      =        -0.117915	      -6.756046
	 D(3,5,24,19)     =        -3.096727	    -177.429400
	 D(3,20,35,36)    =        -3.135628	    -179.658269
	 D(3,20,35,37)    =         1.059629	      60.712253
	 D(3,20,35,38)    =        -1.040202	     -59.599197
	 D(3,20,39,23)    =        -0.631795	     -36.199178
	 D(3,20,39,40)    =         1.438548	      82.422720
	 D(3,20,39,41)    =        -2.744353	    -157.239831
	 D(3,22,13,4)     =        -2.995126	    -171.608084
	 D(3,22,23,11)    =         3.091196	     177.112491
	 D(3,22,23,39)    =         0.046504	       2.664472
	 D(4,1,56,57)     =         1.072116	      61.427732
	 D(4,1,56,58)     =        -1.067156	     -61.143517
	 D(4,1,56,59)     =        -3.138506	    -179.823173
	 D(4,13,2,6)      =         2.019617	     115.715515
	 D(4,13,2,14)     =        -1.083659	     -62.089062
	 D(4,13,22,23)    =        -0.057205	      -3.277616
	 D(4,17,11,12)    =         3.065914	     175.663950
	 D(4,17,11,23)    =        -0.027408	      -1.570379
	 D(5,3,20,21)     =        -0.257882	     -14.775561
	 D(5,3,20,35)     =         1.914351	     109.684229
	 D(5,3,20,39)     =        -2.286087	    -130.983135
	 D(5,3,22,13)     =        -0.845807	     -48.461179
	 D(5,3,22,23)     =         2.478538	     142.009746
	 D(5,8,33,19)     =        -0.048485	      -2.777975
	 D(5,8,33,48)     =         3.090207	     177.055841
	 D(5,8,42,31)     =        -3.071224	    -175.968190
	 D(5,8,42,43)     =         0.058713	       3.364011
	 D(5,24,9,10)     =         0.099116	       5.678936
	 D(5,24,9,46)     =        -3.030024	    -173.607565
	 D(5,24,19,15)    =         3.067316	     175.744252
	 D(5,24,19,33)    =        -0.017109	      -0.980258
	 D(6,2,13,22)     =        -0.972558	     -55.723483
	 D(6,2,14,27)     =        -3.139071	    -179.855527
	 D(6,2,14,34)     =         0.010544	       0.604098
	 D(6,29,54,34)    =         0.000631	       0.036134
	 D(6,29,54,55)    =         3.140633	     179.945043
	 D(7,6,2,13)      =         0.017591	       1.007864
	 D(7,6,2,14)      =         3.122593	     178.911378
	 D(7,6,29,30)     =         0.009983	       0.571958
	 D(7,6,29,54)     =        -3.128115	    -179.227762
	 D(8,5,3,20)      =        -0.406265	     -23.277267
	 D(8,5,3,22)      =         2.967717	     170.037638
	 D(8,5,24,9)      =         2.967374	     170.017993
	 D(8,5,24,19)     =        -0.011438	      -0.655361
	 D(8,33,19,15)    =        -3.036623	    -173.985656
	 D(8,33,19,24)    =         0.041381	       2.370981
	 D(8,33,48,44)    =        -0.008248	      -0.472559
	 D(8,33,48,49)    =         3.141493	     179.994288
	 D(8,42,31,32)    =        -3.130361	    -179.356500
	 D(8,42,31,44)    =         0.019930	       1.141886
	 D(9,24,19,15)    =         0.066330	       3.800422
	 D(9,24,19,33)    =        -3.018095	    -172.924088
	 D(9,46,25,15)    =         0.023848	       1.366396
	 D(9,46,25,26)    =        -3.139472	    -179.878472
	 D(10,9,24,19)    =         3.064782	     175.599095
	 D(10,9,46,25)    =        -3.108792	    -178.120656
	 D(10,9,46,47)    =         0.035493	       2.033611
	 D(11,17,4,13)    =         0.077669	       4.450101
	 D(11,23,22,13)   =         0.108156	       6.196891
	 D(11,23,39,20)   =        -2.654581	    -152.096300
	 D(11,23,39,40)   =         1.580610	      90.562279
	 D(11,23,39,41)   =        -0.540469	     -30.966590
	 D(12,11,17,18)   =        -0.007875	      -0.451225
	 D(12,11,23,22)   =         3.126286	     179.123008
	 D(12,11,23,39)   =        -0.131014	      -7.506576
	 D(13,2,6,29)     =        -3.117907	    -178.642939
	 D(13,2,14,27)    =        -0.036142	      -2.070764
	 D(13,2,14,34)    =         3.113473	     178.388861
	 D(13,4,1,56)     =        -3.128589	    -179.254964
	 D(13,4,17,18)    =        -3.132576	    -179.483400
	 D(13,22,3,20)    =         2.494438	     142.920774
	 D(13,22,23,39)   =        -2.936536	    -168.251127
	 D(14,2,6,29)     =        -0.012905	      -0.739425
	 D(14,2,13,22)    =         2.207352	     126.471940
	 D(14,27,60,52)   =         0.001172	       0.067136
	 D(14,27,60,61)   =        -3.140690	    -179.948278
	 D(14,34,50,51)   =         3.141212	     179.978201
	 D(14,34,50,52)   =        -0.001522	      -0.087227
	 D(14,34,54,29)   =        -0.002623	      -0.150292
	 D(14,34,54,55)   =         3.140531	     179.939199
	 D(15,19,33,48)   =         0.108182	       6.198385
	 D(15,25,46,47)   =        -3.120449	    -178.788568
	 D(16,15,19,24)   =         3.140081	     179.913395
	 D(16,15,19,33)   =        -0.072160	      -4.134447
	 D(16,15,25,26)   =        -0.021748	      -1.246046
	 D(16,15,25,46)   =         3.098098	     177.507920
	 D(17,4,1,56)     =        -0.023837	      -1.365757
	 D(17,4,13,22)    =        -0.034264	      -1.963209
	 D(17,11,23,22)   =        -0.064184	      -3.677489
	 D(17,11,23,39)   =         2.961700	     169.692927
	 D(18,17,11,23)   =        -3.101198	    -177.685554
	 D(19,15,25,26)   =         3.140648	     179.945856
	 D(19,15,25,46)   =        -0.022692	      -1.300178
	 D(19,24,9,46)    =        -0.064357	      -3.687407
	 D(19,33,8,42)    =        -3.102818	    -177.778347
	 D(19,33,48,44)   =         3.129772	     179.322741
	 D(19,33,48,49)   =        -0.003672	      -0.210413
	 D(20,3,5,24)     =         2.667406	     152.831083
	 D(20,3,22,23)    =        -0.464402	     -26.608301
	 D(20,39,23,22)   =         0.381076	      21.834052
	 D(21,20,3,22)    =         2.703879	     154.920854
	 D(21,20,35,36)   =        -0.953922	     -54.655724
	 D(21,20,35,37)   =        -3.041851	    -174.285203
	 D(21,20,35,38)   =         1.141504	      65.403347
	 D(21,20,39,23)   =        -2.669227	    -152.935416
	 D(21,20,39,40)   =        -0.598884	     -34.313518
	 D(21,20,39,41)   =         1.501401	      86.023931
	 D(22,3,5,24)     =        -0.241798	     -13.854012
	 D(22,3,20,35)    =        -1.407073	     -80.619356
	 D(22,3,20,39)    =         0.675674	      38.713280
	 D(22,23,39,40)   =        -1.666918	     -95.507368
	 D(22,23,39,41)   =         2.495188	     142.963763
	 D(23,39,20,35)   =         1.487974	      85.254625
	 D(24,5,8,33)     =         0.037134	       2.127646
	 D(24,5,8,42)     =         3.075302	     176.201846
	 D(24,9,46,25)    =         0.020542	       1.176975
	 D(24,9,46,47)    =        -3.118358	    -178.668758
	 D(24,19,15,25)   =        -0.022437	      -1.285522
	 D(24,19,33,48)   =        -3.096999	    -177.444978
	 D(25,15,19,33)   =         3.048508	     174.666636
	 D(26,25,46,47)   =        -0.000584	      -0.033436
	 D(27,14,34,50)   =         0.005799	       0.332250
	 D(27,14,34,54)   =        -3.136953	    -179.734178
	 D(27,60,52,50)   =         0.003329	       0.190760
	 D(27,60,52,53)   =        -3.140811	    -179.955211
	 D(28,27,14,34)   =         3.135172	     179.632110
	 D(28,27,60,52)   =        -3.139682	    -179.890551
	 D(28,27,60,61)   =         0.001641	       0.094035
	 D(29,54,34,50)   =         3.137799	     179.782620
	 D(30,29,54,34)   =        -3.137419	    -179.760891
	 D(30,29,54,55)   =         0.002583	       0.148017
	 D(31,42,8,33)    =        -0.041135	      -2.356835
	 D(31,44,48,33)   =        -0.013984	      -0.801242
	 D(31,44,48,49)   =         3.119497	     178.733990
	 D(32,31,42,43)   =         0.022474	       1.287686
	 D(32,31,44,45)   =         0.004096	       0.234656
	 D(32,31,44,48)   =        -3.124608	    -179.026853
	 D(33,8,42,43)    =         3.088803	     176.975366
	 D(33,48,44,45)   =         3.140507	     179.937824
	 D(34,14,27,60)   =        -0.005684	      -0.325649
	 D(34,50,52,53)   =         3.141040	     179.968350
	 D(34,50,52,60)   =        -0.003118	      -0.178621
	 D(35,20,39,40)   =        -2.724869	    -156.123477
	 D(35,20,39,41)   =        -0.624584	     -35.786028
	 D(36,35,20,39)   =         1.175231	      67.335772
	 D(37,35,20,39)   =        -0.912697	     -52.293707
	 D(38,35,20,39)   =        -3.012528	    -172.605157
	 D(42,8,33,48)    =         0.035875	       2.055468
	 D(42,31,44,45)   =         3.136948	     179.733893
	 D(42,31,44,48)   =         0.008245	       0.472384
	 D(43,42,31,44)   =        -3.110420	    -178.213928
	 D(45,44,48,49)   =        -0.009197	      -0.526944
	 D(50,34,54,55)   =        -0.002232	      -0.127889
	 D(50,52,60,61)   =        -3.137995	    -179.793878
	 D(51,50,34,54)   =         0.000788	       0.045131
	 D(51,50,52,53)   =        -0.001717	      -0.098349
	 D(51,50,52,60)   =         3.137311	     179.754679
	 D(52,50,34,54)   =         3.141238	     179.979703
	 D(53,52,60,61)   =         0.001050	       0.060151
	 R(1,14)          =         5.645004	       2.987207
	 R(1,27)          =         5.581193	       2.953440
	 R(2,5)           =         6.677513	       3.533588
	 R(2,9)           =         6.362236	       3.366750
	 R(2,24)          =         6.686424	       3.538303
	 R(3,6)           =         6.308726	       3.338434
	 R(4,27)          =         6.210463	       3.286435
	 R(5,6)           =         6.727420	       3.559997
	 R(9,13)          =         6.544166	       3.463023
	 R(9,14)          =         6.355202	       3.363028
	 R(9,22)          =         6.361969	       3.366609
	 R(9,27)          =         6.416736	       3.395591
	 R(13,24)         =         7.000551	       3.704532
	 R(20,42)         =         6.061437	       3.207574
	 R(27,46)         =         7.011448	       3.710299
	 R(35,42)         =         6.898230	       3.650386
	 D(15,2,4,17)     =         0.958370	      54.910579

	Current energy   :     -1377.5266369467

	Generating empirical Hessian (Schlegel '84) for each fragment.
	Adding user-defined constraint: Fragment 1; Coordinate 374:
		Value =     0.958370; Fixed value    =    -0.240855
		Force =    -0.599613; Force constant =     0.500000
	Removing off-diagonal coupling between coordinate 374 and others.
	Taking RFO optimization step.
	Going to follow RFO solution 1.
	Using RFO vector 1.

	Determining step-restricting scale parameter for RS-RFO.
	Maximum step size allowed    0.10000

	 Iter      |step|        alpha        rfo_root  
	------------------------------------------------
	    0     0.73793       1.00000           1
	    1     0.45653       3.42638           1
	    2     0.28851       9.82227           1
	    3     0.19106      24.06459           1
	    4     0.13706      48.57031           1
	    5     0.11052      76.08686           1
	    6     0.10131      91.11266           1
	    7     0.10003      93.54940           1
	    8     0.10000      93.59800           1
	------------------------------------------------
	Norm of target step-size    0.10000
	Projected energy change by RFO approximation:        -0.0417663938

	Back-transformation to cartesian coordinates...
	Successfully converged to displaced geometry.

	--- Internal Coordinate Step in ANG or DEG, aJ/ANG or AJ/DEG ---
	 ---------------------------------------------------------------------------
	   Coordinate                Previous        Force       Change         New 
	   ----------                --------       ------       ------       ------
	    1 R(1,4)          =      1.349163     0.012760     0.000173     1.349336
	    2 R(1,56)         =      1.397549    -0.003672    -0.000053     1.397496
	    3 R(2,6)          =      1.363926    -0.058325    -0.000806     1.363120
	    4 R(2,13)         =      1.503146    -0.003039    -0.000067     1.503079
	    5 R(2,14)         =      1.435964    -0.136199    -0.001958     1.434006
	    6 R(3,5)          =      1.341131    -0.150876    -0.002090     1.339041
	    7 R(3,20)         =      1.530395     0.074886     0.001053     1.531448
	    8 R(3,22)         =      1.500958    -0.114801    -0.001663     1.499295
	    9 R(4,13)         =      1.410509     0.039070     0.000526     1.411035
	   10 R(4,17)         =      1.384293    -0.004339    -0.000050     1.384243
	   11 R(5,8)          =      1.498543     0.091505     0.001257     1.499800
	   12 R(5,24)         =      1.490745    -0.121251    -0.001748     1.488996
	   13 R(6,7)          =      1.074289    -0.001947    -0.000029     1.074260
	   14 R(6,29)         =      1.412159     0.028522     0.000410     1.412568
	   15 R(8,33)         =      1.400947    -0.073688    -0.001019     1.399928
	   16 R(8,42)         =      1.388664     0.026149     0.000352     1.389017
	   17 R(9,10)         =      1.070228    -0.001442    -0.000021     1.070207
	   18 R(9,24)         =      1.384084     0.046117     0.000630     1.384714
	   19 R(9,46)         =      1.386761    -0.122405    -0.001671     1.385090
	   20 R(11,12)        =      1.076272    -0.001924    -0.000029     1.076243
	   21 R(11,17)        =      1.388319    -0.114321    -0.001566     1.386753
	   22 R(11,23)        =      1.370614    -0.116485    -0.001593     1.369020
	   23 R(13,22)        =      1.398478    -0.020050    -0.000271     1.398207
	   24 R(14,27)        =      1.423153    -0.090116    -0.001282     1.421871
	   25 R(14,34)        =      1.410417    -0.055908    -0.000801     1.409617
	   26 R(15,16)        =      1.075793    -0.001489    -0.000022     1.075770
	   27 R(15,19)        =      1.382799    -0.204338    -0.002795     1.380004
	   28 R(15,25)        =      1.385312     0.125221     0.001725     1.387036
	   29 R(17,18)        =      1.072198    -0.001001    -0.000015     1.072183
	   30 R(19,24)        =      1.398631    -0.024789    -0.000350     1.398281
	   31 R(19,33)        =      1.467263    -0.080167    -0.001109     1.466154
	   32 R(20,21)        =      1.079928    -0.002625    -0.000039     1.079889
	   33 R(20,35)        =      1.534427     0.029957     0.000411     1.534837
	   34 R(20,39)        =      1.547404    -0.048910    -0.000688     1.546715
	   35 R(22,23)        =      1.401632    -0.016166    -0.000237     1.401395
	   36 R(23,39)        =      1.507533    -0.084421    -0.001184     1.506349
	   37 R(25,26)        =      1.075844    -0.002057    -0.000031     1.075813
	   38 R(25,46)        =      1.386517     0.105679     0.001464     1.387980
	   39 R(27,28)        =      1.072567    -0.002418    -0.000036     1.072531
	   40 R(27,60)        =      1.357146     0.009809     0.000137     1.357284
	   41 R(29,30)        =      1.075524    -0.001927    -0.000029     1.075496
	   42 R(29,54)        =      1.354769     0.043440     0.000609     1.355379
	   43 R(31,32)        =      1.075873    -0.001981    -0.000029     1.075844
	   44 R(31,42)        =      1.387707    -0.000393    -0.000001     1.387706
	   45 R(31,44)        =      1.385862    -0.018568    -0.000242     1.385620
	   46 R(33,48)        =      1.382833     0.003474     0.000045     1.382878
	   47 R(34,50)        =      1.421893    -0.005522    -0.000078     1.421815
	   48 R(34,54)        =      1.418361     0.015243     0.000219     1.418580
	   49 R(35,36)        =      1.086456    -0.000815    -0.000012     1.086444
	   50 R(35,37)        =      1.084851    -0.001155    -0.000017     1.084834
[...]
	  354 D(51,50,52,53)  =     -0.421730    -0.000002    -0.018821    -0.440552
	  355 D(51,50,52,60)  =    178.943411    -0.000005    -0.032810   178.910601
	  356 D(52,50,34,54)  =    178.276446    -0.000015    -0.203572   178.072874
	  357 D(53,52,60,61)  =      0.083569     0.000002     0.040228     0.123797
	  358 R(1,14)         =      2.939864     0.002969     0.003976     2.943840
	  359 R(1,27)         =      3.073510     0.057077     0.017868     3.091378
	  360 R(2,5)          =      3.603112     0.023720     0.007600     3.610712
	  361 R(2,9)          =      3.262338    -0.043204    -0.014000     3.248337
	  362 R(2,24)         =      3.519806    -0.014071    -0.005164     3.514642
	  363 R(3,6)          =      3.463029     0.061016     0.019834     3.482863
	  364 R(4,27)         =      3.262110    -0.013312    -0.004650     3.257460
	  365 R(5,6)          =      3.547301     0.010060     0.004088     3.551389
	  366 R(9,13)         =      3.498516     0.011504     0.004113     3.502628
	  367 R(9,14)         =      3.300215    -0.033081    -0.010437     3.289778
	  368 R(9,22)         =      3.380228     0.001261     0.000666     3.380895
	  369 R(9,27)         =      3.467566     0.041054     0.014721     3.482286
	  370 R(13,24)        =      3.707454     0.006879     0.004335     3.711789
	  371 R(20,42)        =      3.207640     0.004086     0.001600     3.209240
	  372 R(27,46)        =      3.804480     0.048549     0.015288     3.819768
	  373 R(35,42)        =      3.639246    -0.003873    -0.001563     3.637683
	  374 D(15,2,4,17)    =    -12.022880    -0.000137    -0.577323   -12.600202
	 ---------------------------------------------------------------------------
	Successfully symmetrized geometry.
	 Forces used to impose fixed constraints are not included.
	  Forces zeroed: 374 

  ==> Convergence Check <==

  Measures of convergence in internal coordinates in au.
  Criteria marked as inactive (o), active & met (*), and active & unmet ( ).
  ---------------------------------------------------------------------------------------------
   Step     Total Energy     Delta E     MAX Force     RMS Force      MAX Disp      RMS Disp   
  ---------------------------------------------------------------------------------------------
    Convergence Criteria    1.00e-06 *    3.00e-04 *             o    1.20e-03 *             o
  ---------------------------------------------------------------------------------------------
     18   -1377.51023035   -1.10e-03      7.41e-03      1.09e-03 o    3.75e-02      5.17e-03 o  ~
  ---------------------------------------------------------------------------------------------

	Writing optimization data to binary file.
	Structure for next step:
	Cartesian Geometry (in Angstrom)
	    O    -2.0086465525   2.1885657291   2.6537311109
	    C    -1.0840348019   0.1295905367   1.3780622647
	    C    -0.0316009432   1.0578158279  -1.6550230135
	    C    -1.2952901653   2.5777474869   1.5616863573
	    C     0.5094849576  -0.1513760591  -1.8497842454
	    C    -1.9116858176  -0.7030654000   0.6890996599
	    H    -2.3639155081  -0.3698586848  -0.2258751341
	    C     0.4649556980  -0.9496268243  -3.1167767104
	    C     1.8829827993  -0.6515719955   0.3111573628
	    H     1.6746380982   0.2863919054   0.7817895262
	    C    -0.2058879351   4.1882930219   0.2306879879
	    H     0.0574914473   5.2084822404   0.0106403083
	    C    -0.8374339549   1.4995272089   0.8015752946
	    C    -0.4711909696  -0.3209610089   2.5851854119
	    C     2.5381697249  -3.0667995295  -0.9390079591
	    H     2.8230968242  -3.9812634944  -1.4280568702
	    C    -0.8136826348   3.8673049462   1.4507856684
	    H    -1.0369082895   4.6268864470   2.1699385872
	    C     1.7086612490  -2.1530221885  -1.5584839730
	    C    -0.3143612059   2.0609955868  -2.7818842437
	    H     0.2111800384   1.7780024311  -3.6817205888
	    C    -0.2694544327   1.8515151339  -0.4182376072
	    C    -0.0364316724   3.2056963283  -0.7170379662
	    C     1.3370611182  -0.9657307687  -0.9222140261
	    C     3.0155940996  -2.7767597047   0.3315011520
	    H     3.6558031092  -3.4798281121   0.8344719452
	    C     0.4742389877   0.4620038668   3.2947304845
	    H     0.7300971451   1.4377002746   2.9291458117
	    C    -2.2144514832  -1.9992844054   1.1706294568
	    H    -2.8814369570  -2.6294433675   0.6099851337
	    C    -0.1220117458  -1.7212753914  -5.3133845802
	    H    -0.6251217456  -1.5551740294  -6.2493695389
	    C     1.1456340501  -2.1565458277  -2.9130488078
	    C    -0.7714664747  -1.6123771854   3.0609306171
	    C    -1.8028479306   2.2697119417  -3.0924029758
	    H    -1.9211968812   2.9859281071  -3.9005020016
	    H    -2.3349483029   2.6517852013  -2.2281433453
	    H    -2.2843043474   1.3451734320  -3.3913515228
	    C     0.3108694228   3.3464515870  -2.1810860346
	    H     1.3850950960   3.3503151082  -2.3481969658
	    H    -0.0968128675   4.2505726548  -2.6208558177
	    C    -0.1930220334  -0.7512707848  -4.3232009980
	    H    -0.7685719087   0.1301825848  -4.5156009875
	    C     0.5769626922  -2.9006383246  -5.1069494223
	    H     0.6175442652  -3.6437186816  -5.8833012183
	    C     2.6978765419  -1.5724724971   0.9480364373
	    H     3.0938336631  -1.3487452668   1.9216117009
	    C     1.2095988400  -3.1277970246  -3.8955226413
	    H     1.7359816945  -4.0495656370  -3.7228209477
	    C    -0.1552267860  -2.0685200954   4.2567223786
	    H    -0.3945954347  -3.0537951986   4.6171460291
	    C     0.7291199119  -1.2880943044   4.9286357609
	    H     1.1933052887  -1.6443499124   5.8310376222
	    C    -1.6667597944  -2.4376840773   2.3300745377
	    H    -1.8878632216  -3.4224921084   2.7029097181
	    C    -2.3990731535   3.1118650908   3.6235108309
	    H    -3.0404739860   3.8832978505   3.2079403654
	    H    -1.5432523669   3.5776805041   4.1019716794
	    H    -2.9512439149   2.5527005335   4.3639280875
	    C     1.0539470293  -0.0031396435   4.4330777372
	    H     1.7650347981   0.6045544071   4.9644131943
			--------------------------
			 OPTKING Finished Execution 
			--------------------------

    Structure for next step:
    Molecular point group: c1
    Full point group: C1

    Geometry (in Angstrom), charge = 0, multiplicity = 1:

    O           -2.007213075867     2.189503808669     2.652591884750
    C           -1.082601325276     0.130528616310     1.376923038527
    C           -0.030167466581     1.058753907543    -1.656162239685
    C           -1.293856688699     2.578685566535     1.560547131191
    C            0.510918434237    -0.150437979457    -1.850923471588
    C           -1.910252341022    -0.702127320429     0.687960433740
    H           -2.362482031478    -0.368920605234    -0.227014360286
    C            0.466389174609    -0.948688744742    -3.117915936590
    C            1.884416275919    -0.650633915867     0.310018136623
    H            1.676071574812     0.287329985016     0.780650300017
    C           -0.204454458523     4.189231101510     0.229548761706
    H            0.058924923943     5.209420319981     0.009501082131
    C           -0.836000478297     1.500465288493     0.800436068482
    C           -0.469757492981    -0.320022929275     2.584046185725
    C            2.539603201539    -3.065861449954    -0.940147185283
    H            2.824530300808    -3.980325414847    -1.429196096315
    C           -0.812249158163     3.868243025821     1.449646442220
    H           -1.035474812857     4.627824526599     2.168799361006
    C            1.710094725582    -2.152084108954    -1.559623199155
    C           -0.312927729310     2.061933666420    -2.783023469843
    H            0.212613514981     1.778940510726    -3.682859814984
    C           -0.268020956129     1.852453213490    -0.419376833335
    C           -0.034998195750     3.206634407857    -0.718177192319
    C            1.338494594843    -0.964792689059    -0.923353252242
    C            3.017027576175    -2.775821625146     0.330361925835
    H            3.657236585800    -3.478890032527     0.833332719003
    C            0.475672464269     0.462941946398     3.293591258321
    H            0.731530621747     1.438638354223     2.928006585593
    C           -2.213018006599    -1.998346325785     1.169490230616
    H           -2.880003480416    -2.628505287915     0.608845907576
    C           -0.120578269213    -1.720337311850    -5.314523806396
    H           -0.623688269024    -1.554235949769    -6.250508765067
    C            1.147067526678    -2.155607748116    -2.914188033956
    C           -0.770032998140    -1.611439105765     3.059791390909
    C           -1.801414454044     2.270650021329    -3.093542201985
    H           -1.919763404643     2.986866186668    -3.901641227795
    H           -2.333514826277     2.652723280873    -2.229282571433
    H           -2.282870870847     1.346111511565    -3.392490748913
    C            0.312302899355     3.347389666557    -2.182225260803
    H            1.386528572557     3.351253187748    -2.349336191907
    H           -0.095379390927     4.251510734429    -2.621995043807
    C           -0.191588556807    -0.750332705253    -4.324340224132
    H           -0.767138432069     0.131120664358    -4.516740213688
    C            0.578396168788    -2.899700244973    -5.108088648417
    H            0.618977741810    -3.642780602036    -5.884440444439
    C            2.699310018458    -1.571534417540     0.946897211109
    H            3.095267139744    -1.347807187199     1.920472474722
    C            1.211032316593    -3.126858945042    -3.896661867426
    H            1.737415171082    -4.048627557373    -3.723960173811
    C           -0.153793309397    -2.067582015783     4.255583152472
    H           -0.393161958083    -3.052857118974     4.616006802941
    C            0.730553388464    -1.287156224844     4.927496534708
    H            1.194738765297    -1.643411832794     5.829898396082
    C           -1.665326317775    -2.436745997754     2.328935311549
    H           -1.886429745027    -3.421554028849     2.701770491898
    C           -2.397639676857     3.112803170407     3.622371604709
    H           -3.039040509351     3.884235930130     3.206801139290
    H           -1.541818890338     3.578618583653     4.100832453251
    H           -2.949810438262     2.553638613102     4.362788861304
    C            1.055380505915    -0.002201563893     4.431938511054
    H            1.766468274692     0.605492486673     4.963273968172

gradient() will perform analytic gradient computation.

*** tstart() called on warthog
*** at Fri Nov 17 15:37:25 2017

   => Loading Basis Set <=

    Name: 6-31G*
    Role: ORBITAL
    Keyword: BASIS
    atoms 1                                                                                                entry O          line   145 file /home/dslochower/data/applications/anaconda3/envs/p4env/share/psi4/basis/6-31gs.gbs 
    atoms 2-6, 8-9, 11, 13-15, 17, 19-20, 22-25, 27, 29, 31, 33-35, 39, 42, 44, 46, 48, 50, 52, 54, 56, 60 entry C          line   111 file /home/dslochower/data/applications/anaconda3/envs/p4env/share/psi4/basis/6-31gs.gbs 
    atoms 7, 10, 12, 16, 18, 21, 26, 28, 30, 32, 36-38, 40-41, 43, 45, 47, 49, 51, 53, 55, 57-59, 61       entry H          line    44 file /home/dslochower/data/applications/anaconda3/envs/p4env/share/psi4/basis/6-31gs.gbs 


         ---------------------------------------------------------
                                   SCF
            by Justin Turney, Rob Parrish, Andy Simmonett
                             and Daniel Smith
                              RHF Reference
                        1 Threads,   7629 MiB Core
         ---------------------------------------------------------

  ==> Geometry <==

    Molecular point group: c1
    Full point group: C1

    Geometry (in Angstrom), charge = 0, multiplicity = 1:

       Center              X                  Y                   Z               Mass       
    ------------   -----------------  -----------------  -----------------  -----------------
           O         -2.007213075867     2.189503808669     2.652591884750    15.994914619560
           C         -1.082601325276     0.130528616310     1.376923038527    12.000000000000
           C         -0.030167466581     1.058753907543    -1.656162239685    12.000000000000
           C         -1.293856688699     2.578685566535     1.560547131191    12.000000000000
           C          0.510918434237    -0.150437979457    -1.850923471588    12.000000000000
           C         -1.910252341022    -0.702127320429     0.687960433740    12.000000000000
           H         -2.362482031478    -0.368920605234    -0.227014360286     1.007825032070
           C          0.466389174609    -0.948688744742    -3.117915936590    12.000000000000
           C          1.884416275919    -0.650633915867     0.310018136623    12.000000000000
           H          1.676071574812     0.287329985016     0.780650300017     1.007825032070
           C         -0.204454458523     4.189231101510     0.229548761706    12.000000000000
           H          0.058924923943     5.209420319981     0.009501082131     1.007825032070
           C         -0.836000478297     1.500465288493     0.800436068482    12.000000000000
           C         -0.469757492981    -0.320022929275     2.584046185725    12.000000000000
           C          2.539603201539    -3.065861449954    -0.940147185283    12.000000000000
           H          2.824530300808    -3.980325414847    -1.429196096315     1.007825032070
           C         -0.812249158163     3.868243025821     1.449646442220    12.000000000000
           H         -1.035474812857     4.627824526599     2.168799361006     1.007825032070
           C          1.710094725582    -2.152084108954    -1.559623199155    12.000000000000
           C         -0.312927729310     2.061933666420    -2.783023469843    12.000000000000
           H          0.212613514981     1.778940510726    -3.682859814984     1.007825032070
           C         -0.268020956129     1.852453213490    -0.419376833335    12.000000000000
           C         -0.034998195750     3.206634407857    -0.718177192319    12.000000000000
           C          1.338494594843    -0.964792689059    -0.923353252242    12.000000000000
           C          3.017027576175    -2.775821625146     0.330361925835    12.000000000000
           H          3.657236585800    -3.478890032527     0.833332719003     1.007825032070
           C          0.475672464269     0.462941946398     3.293591258321    12.000000000000
           H          0.731530621747     1.438638354223     2.928006585593     1.007825032070
           C         -2.213018006599    -1.998346325785     1.169490230616    12.000000000000
           H         -2.880003480416    -2.628505287915     0.608845907576     1.007825032070
           C         -0.120578269213    -1.720337311850    -5.314523806396    12.000000000000
           H         -0.623688269024    -1.554235949769    -6.250508765067     1.007825032070
           C          1.147067526678    -2.155607748116    -2.914188033956    12.000000000000
           C         -0.770032998140    -1.611439105765     3.059791390909    12.000000000000
           C         -1.801414454044     2.270650021329    -3.093542201985    12.000000000000
           H         -1.919763404643     2.986866186668    -3.901641227795     1.007825032070
           H         -2.333514826277     2.652723280873    -2.229282571433     1.007825032070
           H         -2.282870870847     1.346111511565    -3.392490748913     1.007825032070
           C          0.312302899355     3.347389666557    -2.182225260803    12.000000000000
           H          1.386528572557     3.351253187748    -2.349336191907     1.007825032070
           H         -0.095379390927     4.251510734429    -2.621995043807     1.007825032070
           C         -0.191588556807    -0.750332705253    -4.324340224132    12.000000000000
           H         -0.767138432069     0.131120664358    -4.516740213688     1.007825032070
           C          0.578396168788    -2.899700244973    -5.108088648417    12.000000000000
           H          0.618977741810    -3.642780602036    -5.884440444439     1.007825032070
           C          2.699310018458    -1.571534417540     0.946897211109    12.000000000000
           H          3.095267139744    -1.347807187199     1.920472474722     1.007825032070
           C          1.211032316593    -3.126858945042    -3.896661867426    12.000000000000
           H          1.737415171082    -4.048627557373    -3.723960173811     1.007825032070
           C         -0.153793309397    -2.067582015783     4.255583152472    12.000000000000
           H         -0.393161958083    -3.052857118974     4.616006802941     1.007825032070
           C          0.730553388464    -1.287156224844     4.927496534708    12.000000000000
           H          1.194738765297    -1.643411832794     5.829898396082     1.007825032070
           C         -1.665326317775    -2.436745997754     2.328935311549    12.000000000000
           H         -1.886429745027    -3.421554028849     2.701770491898     1.007825032070
           C         -2.397639676857     3.112803170407     3.622371604709    12.000000000000
           H         -3.039040509351     3.884235930130     3.206801139290     1.007825032070
           H         -1.541818890338     3.578618583653     4.100832453251     1.007825032070
           H         -2.949810438262     2.553638613102     4.362788861304     1.007825032070
           C          1.055380505915    -0.002201563893     4.431938511054    12.000000000000
           H          1.766468274692     0.605492486673     4.963273968172     1.007825032070

  Running in c1 symmetry.

  Rotational constants: A =      0.00582  B =      0.00386  C =      0.00280 [cm^-1]
  Rotational constants: A =    174.36721  B =    115.85592  C =     83.90619 [MHz]
  Nuclear repulsion = 3591.696950112549075

  Charge       = 0
  Multiplicity = 1
  Electrons    = 238
  Nalpha       = 119
  Nbeta        = 119

  ==> Algorithm <==

  SCF Algorithm Type is DF.
  DIIS enabled.
  MOM disabled.
  Fractional occupation disabled.
  Guess Type is READ.
  Energy threshold   = 1.00e-08
  Density threshold  = 1.00e-08
  Integral threshold = 1.00e-08

  ==> Primary Basis <==

  Basis Set: 6-31G*
    Blend: 6-31G*
    Number of shells: 262
    Number of basis function: 577
    Number of Cartesian functions: 577
    Spherical Harmonics?: false
    Max angular momentum: 2

   => Loading Basis Set <=

    Name: (6-31G* AUX)
    Role: JKFIT
    Keyword: DF_BASIS_SCF
    atoms 1                                                                                                entry O          line   221 file /home/dslochower/data/applications/anaconda3/envs/p4env/share/psi4/basis/cc-pvdz-jkfit.gbs 
    atoms 2-6, 8-9, 11, 13-15, 17, 19-20, 22-25, 27, 29, 31, 33-35, 39, 42, 44, 46, 48, 50, 52, 54, 56, 60 entry C          line   121 file /home/dslochower/data/applications/anaconda3/envs/p4env/share/psi4/basis/cc-pvdz-jkfit.gbs 
    atoms 7, 10, 12, 16, 18, 21, 26, 28, 30, 32, 36-38, 40-41, 43, 45, 47, 49, 51, 53, 55, 57-59, 61       entry H          line    51 file /home/dslochower/data/applications/anaconda3/envs/p4env/share/psi4/basis/cc-pvdz-jkfit.gbs 

  Reading orbitals from file 180, no projection.

  ==> Pre-Iterations <==

   -------------------------------------------------------
    Irrep   Nso     Nmo     Nalpha   Nbeta   Ndocc  Nsocc
   -------------------------------------------------------
     A        577     577       0       0       0       0
   -------------------------------------------------------
    Total     577     577     119     119     119       0
   -------------------------------------------------------

  ==> Integral Setup <==

