
Host: warthog

Timers On : Fri Nov 17 11:24:33 2017
Timers Off: Fri Nov 17 11:24:33 2017

Wall Time:        0.30 seconds


-----------------------------------------------------------

***********************************************************

Host: warthog

Timers On : Fri Nov 17 11:25:03 2017
Timers Off: Fri Nov 17 11:25:03 2017

Wall Time:        0.24 seconds


-----------------------------------------------------------

***********************************************************

Host: warthog

Timers On : Fri Nov 17 11:25:58 2017
Timers Off: Fri Nov 17 11:25:58 2017

Wall Time:        0.24 seconds


-----------------------------------------------------------

***********************************************************

Host: warthog

Timers On : Fri Nov 17 11:26:02 2017
Timers Off: Fri Nov 17 11:26:03 2017

Wall Time:        0.23 seconds


-----------------------------------------------------------

***********************************************************
