
    -----------------------------------------------------------------------
          Psi4: An Open-Source Ab Initio Electronic Structure Package
                               Psi4 1.1 release

                         Git: Rev {HEAD} add49b9 


    R. M. Parrish, L. A. Burns, D. G. A. Smith, A. C. Simmonett,
    A. E. DePrince III, E. G. Hohenstein, U. Bozkaya, A. Yu. Sokolov,
    R. Di Remigio, R. M. Richard, J. F. Gonthier, A. M. James,
    H. R. McAlexander, A. Kumar, M. Saitow, X. Wang, B. P. Pritchard,
    P. Verma, H. F. Schaefer III, K. Patkowski, R. A. King, E. F. Valeev,
    F. A. Evangelista, J. M. Turney, T. D. Crawford, and C. D. Sherrill,
    J. Chem. Theory Comput. in press (2017).
    (doi: 10.1021/acs.jctc.7b00174)

    -----------------------------------------------------------------------


    Psi4 started on: Thursday, 16 November 2017 06:11PM

    Process ID:   2767
    PSIDATADIR: /home/dslochower/data/applications/psi4conda/share/psi4
    Memory:     500.0 MiB
    Threads:    1
    
  ==> Input File <==

--------------------------------------------------------------------------
# Any line starting with the # character is a comment line
#! Sample HF/cc-pVDZ Feringa computation

memory 2000 mb

molecule {
  O          -0.0905    5.5166   12.3212
  C           0.2148    3.5148   10.5539
  C           1.2528    4.5034    7.6327
  C           0.4429    5.9274   11.1286
  C           1.7540    3.2686    7.3766
  C          -0.8252    2.9396    9.8619
  H          -1.2025    3.3992    9.1219
  C           1.7183    2.5437    6.0696
  C           3.0507    2.6072    9.5438
  H           2.9013    3.4342    9.9869
  C           1.0732    7.6244    9.5385
  H           1.2275    8.5364    9.3209
  C           0.6509    4.8945   10.1848
  C           0.7880    2.8150   11.6680
  C           3.5773    0.1811    8.2153
  H           3.7557   -0.6352    7.7635
  C           0.7031    7.2626   10.8309
  H           0.6286    7.9245   11.5072
  C           2.8346    1.1819    7.6040
  C           0.8725    5.4878    6.5329
  H           1.3338    5.2571    5.6753
  C           1.0804    5.2753    8.8983
  C           1.2127    6.6449    8.5780
  C           2.5109    2.3759    8.2838
  C           4.0543    0.3990    9.5019
  H           4.5471   -0.2825    9.9444
  C           1.8496    3.3486   12.4438
  H           2.1861    4.2127   12.2395
  C          -1.3425    1.6789   10.2326
  H          -2.0752    1.3104    9.7534
  C           1.2485    1.9192    3.7870
  H           0.8622    2.1258    2.9451
  C           2.3548    1.2902    6.2299
  C           0.2861    1.5272   12.0084
  C          -0.6476    5.5052    6.3445
  H          -0.8920    6.2245    5.7258
  H          -1.0820    5.6575    7.2089
  H          -0.9413    4.6452    5.9778
  C           1.4014    6.8266    7.0972
  H           2.3554    6.9610    6.8693
  H           0.8740    7.5933    6.7579
  C           1.1295    2.8321    4.8348
  H           0.6522    3.6437    4.7095
  C           1.9218    0.7111    3.9510
  H           2.0076    0.1130    3.2184
  C           3.8137    1.6101   10.1487
  H           4.1751    1.7585   11.0137
  C           2.4674    0.3804    5.1847
  H           2.9087   -0.4511    5.3118
  C           0.8829    0.8211   13.0952
  H           0.5519   -0.0380   13.3300
  C           1.9174    1.3550   13.8002
  H           2.3150    0.8603   14.5081
  C          -0.7959    0.9854   11.2759
  H          -1.1452    0.1335   11.5099
  C          -0.4216    6.5116   13.2838
  H          -1.0388    7.1598   12.8843
  H           0.3939    6.9717   13.5715
  H          -0.8480    6.0881   14.0570
  C           2.3993    2.6430   13.4812
  H           3.1079    3.0221   13.9880
}

set basis 6-31G**
optimize('scf')
--------------------------------------------------------------------------

  Memory set to   1.863 GiB by Python driver.
gradient() will perform analytic gradient computation.

*** tstart() called on warthog
*** at Thu Nov 16 18:11:24 2017

   => Loading Basis Set <=

    Name: 6-31G**
    Role: ORBITAL
    Keyword: BASIS
    atoms 1                                                                                                entry O          line   140 file /home/dslochower/data/applications/psi4conda/share/psi4/basis/6-31gss.gbs 
    atoms 2-6, 8-9, 11, 13-15, 17, 19-20, 22-25, 27, 29, 31, 33-35, 39, 42, 44, 46, 48, 50, 52, 54, 56, 60 entry C          line   106 file /home/dslochower/data/applications/psi4conda/share/psi4/basis/6-31gss.gbs 
    atoms 7, 10, 12, 16, 18, 21, 26, 28, 30, 32, 36-38, 40-41, 43, 45, 47, 49, 51, 53, 55, 57-59, 61       entry H          line    35 file /home/dslochower/data/applications/psi4conda/share/psi4/basis/6-31gss.gbs 

    There are an even number of electrons - assuming singlet.
    Specify the multiplicity in the molecule input block.


         ---------------------------------------------------------
                                   SCF
            by Justin Turney, Rob Parrish, and Andy Simmonett
                              RHF Reference
                        1 Threads,   1907 MiB Core
         ---------------------------------------------------------

  ==> Geometry <==

    Molecular point group: c1
    Full point group: C1

    Geometry (in Angstrom), charge = 0, multiplicity = 1:

       Center              X                  Y                   Z               Mass       
    ------------   -----------------  -----------------  -----------------  -----------------
           O         -1.359938439009     2.190676951276     3.106873470861    15.994914619560
           C         -1.054638439009     0.188876951276     1.339573470861    12.000000000000
           C         -0.016638439009     1.177476951276    -1.581626529139    12.000000000000
           C         -0.826538439009     2.601476951276     1.914273470861    12.000000000000
           C          0.484561560991    -0.057323048724    -1.837726529139    12.000000000000
           C         -2.094638439009    -0.386323048724     0.647573470861    12.000000000000
           H         -2.471938439009     0.073276951276    -0.092426529139     1.007825032070
           C          0.448861560991    -0.782223048724    -3.144726529139    12.000000000000
           C          1.781261560991    -0.718723048724     0.329473470861    12.000000000000
           H          1.631861560991     0.108276951276     0.772573470861     1.007825032070
           C         -0.196238439009     4.298476951276     0.324173470861    12.000000000000
           H         -0.041938439009     5.210476951276     0.106573470861     1.007825032070
           C         -0.618538439009     1.568576951276     0.970473470861    12.000000000000
           C         -0.481438439009    -0.510923048724     2.453673470861    12.000000000000
           C          2.307861560991    -3.144823048724    -0.999026529139    12.000000000000
           H          2.486261560991    -3.961123048724    -1.450826529139     1.007825032070
           C         -0.566338439009     3.936676951276     1.616573470861    12.000000000000
           H         -0.640838439009     4.598576951276     2.292873470861     1.007825032070
           C          1.565161560991    -2.144023048724    -1.610326529139    12.000000000000
           C         -0.396938439009     2.161876951276    -2.681426529139    12.000000000000
           H          0.064361560991     1.931176951276    -3.539026529139     1.007825032070
           C         -0.189038439009     1.949376951276    -0.316026529139    12.000000000000
           C         -0.056738439009     3.318976951276    -0.636326529139    12.000000000000
           C          1.241461560991    -0.950023048724    -0.930526529139    12.000000000000
           C          2.784861560991    -2.926923048724     0.287573470861    12.000000000000
           H          3.277661560991    -3.608423048724     0.730073470861     1.007825032070
           C          0.580161560991     0.022676951276     3.229473470861    12.000000000000
           H          0.916661560991     0.886776951276     3.025173470861     1.007825032070
           C         -2.611938439009    -1.647023048724     1.018273470861    12.000000000000
           H         -3.344638439009    -2.015523048724     0.539073470861     1.007825032070
           C         -0.020938439009    -1.406723048724    -5.427326529139    12.000000000000
           H         -0.407238439009    -1.200123048724    -6.269226529139     1.007825032070
           C          1.085361560991    -2.035723048724    -2.984426529139    12.000000000000
           C         -0.983338439009    -1.798723048724     2.794073470861    12.000000000000
           C         -1.917038439009     2.179276951276    -2.869826529139    12.000000000000
           H         -2.161438439009     2.898576951276    -3.488526529139     1.007825032070
           H         -2.351438439009     2.331576951276    -2.005426529139     1.007825032070
           H         -2.210738439009     1.319276951276    -3.236526529139     1.007825032070
           C          0.131961560991     3.500676951276    -2.117126529139    12.000000000000
           H          1.085961560991     3.635076951276    -2.345026529139     1.007825032070
           H         -0.395438439009     4.267376951276    -2.456426529139     1.007825032070
           C         -0.139938439009    -0.493823048724    -4.379526529139    12.000000000000
           H         -0.617238439009     0.317776951276    -4.504826529139     1.007825032070
           C          0.652361560991    -2.614823048724    -5.263326529139    12.000000000000
           H          0.738161560991    -3.212923048724    -5.995926529139     1.007825032070
           C          2.544261560991    -1.715823048724     0.934373470861    12.000000000000
           H          2.905661560991    -1.567423048724     1.799373470861     1.007825032070
           C          1.197961560991    -2.945523048724    -4.029626529139    12.000000000000
           H          1.639261560991    -3.777023048724    -3.902526529139     1.007825032070
           C         -0.386538439009    -2.504823048724     3.880873470861    12.000000000000
           H         -0.717538439009    -3.363923048724     4.115673470861     1.007825032070
           C          0.647961560991    -1.970923048724     4.585873470861    12.000000000000
           H          1.045561560991    -2.465623048724     5.293773470861     1.007825032070
           C         -2.065338439009    -2.340523048724     2.061573470861    12.000000000000
           H         -2.414638439009    -3.192423048724     2.295573470861     1.007825032070
           C         -1.691038439009     3.185676951276     4.069473470861    12.000000000000
           H         -2.308238439009     3.833876951276     3.669973470861     1.007825032070
           H         -0.875538439009     3.645776951276     4.357173470861     1.007825032070
           H         -2.117438439009     2.762176951276     4.842673470861     1.007825032070
           C          1.129861560991    -0.682923048724     4.266873470861    12.000000000000
           H          1.838461560991    -0.303823048724     4.773673470861     1.007825032070

  Running in c1 symmetry.

  Rotational constants: A =      0.00579  B =      0.00394  C =      0.00281 [cm^-1]
  Rotational constants: A =    173.58532  B =    118.06999  C =     84.35571 [MHz]
  Nuclear repulsion = 3612.903371584816341

  Charge       = 0
  Multiplicity = 1
  Electrons    = 238
  Nalpha       = 119
  Nbeta        = 119

  ==> Algorithm <==

  SCF Algorithm Type is DF.
  DIIS enabled.
  MOM disabled.
  Fractional occupation disabled.
  Guess Type is SAD.
  Energy threshold   = 1.00e-08
  Density threshold  = 1.00e-08
  Integral threshold = 0.00e+00

  ==> Primary Basis <==

  Basis Set: 6-31G**
    Blend: 6-31G**
    Number of shells: 288
    Number of basis function: 655
    Number of Cartesian functions: 655
    Spherical Harmonics?: false
    Max angular momentum: 2

   => Loading Basis Set <=

    Name: (6-31G** AUX)
    Role: JKFIT
    Keyword: DF_BASIS_SCF
    atoms 1                                                                                                entry O          line   220 file /home/dslochower/data/applications/psi4conda/share/psi4/basis/cc-pvdz-jkfit.gbs 
    atoms 2-6, 8-9, 11, 13-15, 17, 19-20, 22-25, 27, 29, 31, 33-35, 39, 42, 44, 46, 48, 50, 52, 54, 56, 60 entry C          line   120 file /home/dslochower/data/applications/psi4conda/share/psi4/basis/cc-pvdz-jkfit.gbs 
    atoms 7, 10, 12, 16, 18, 21, 26, 28, 30, 32, 36-38, 40-41, 43, 45, 47, 49, 51, 53, 55, 57-59, 61       entry H          line    50 file /home/dslochower/data/applications/psi4conda/share/psi4/basis/cc-pvdz-jkfit.gbs 

  ==> Pre-Iterations <==

   -------------------------------------------------------
    Irrep   Nso     Nmo     Nalpha   Nbeta   Ndocc  Nsocc
   -------------------------------------------------------
     A        655     655       0       0       0       0
   -------------------------------------------------------
    Total     655     655     119     119     119       0
   -------------------------------------------------------

  ==> Integral Setup <==

  ==> DFJK: Density-Fitted J/K Matrices <==

    J tasked:                  Yes
    K tasked:                  Yes
    wK tasked:                  No
    OpenMP threads:              1
    Integrals threads:           1
    Memory (MB):              1430
    Algorithm:                Disk
    Integral Cache:           NONE
    Schwarz Cutoff:          1E-12
    Fitting Condition:       1E-12

   => Auxiliary Basis Set <=

  Basis Set: (6-31G** AUX)
    Blend: CC-PVDZ-JKFIT
    Number of shells: 1074
    Number of basis function: 3485
    Number of Cartesian functions: 3485
    Spherical Harmonics?: false
    Max angular momentum: 3

  Minimum eigenvalue in the overlap matrix is 2.2438103489E-04.
  Using Symmetric Orthogonalization.

  SCF Guess: Superposition of Atomic Densities via on-the-fly atomic UHF.

  ==> Iterations <==

                           Total Energy        Delta E     RMS |[F,P]|

   @DF-RHF iter   0: -1402.61684453622388   -1.40262e+03   1.83317e-02 
   @DF-RHF iter   1: -1375.35448305324758    2.72624e+01   1.92045e-03 
   @DF-RHF iter   2: -1372.06189721037981    3.29259e+00   3.33247e-03 DIIS
   @DF-RHF iter   3: -1377.10790518289082   -5.04601e+00   5.98754e-04 DIIS
   @DF-RHF iter   4: -1377.21681132767321   -1.08906e-01   2.87299e-04 DIIS
   @DF-RHF iter   5: -1377.24322118683517   -2.64099e-02   9.06715e-05 DIIS
   @DF-RHF iter   6: -1377.24658274758394   -3.36156e-03   4.84770e-05 DIIS
   @DF-RHF iter   7: -1377.24753046870160   -9.47721e-04   1.53596e-05 DIIS
   @DF-RHF iter   8: -1377.24767037925790   -1.39911e-04   6.77888e-06 DIIS
   @DF-RHF iter   9: -1377.24769292120163   -2.25419e-05   2.43796e-06 DIIS
   @DF-RHF iter  10: -1377.24769794697477   -5.02577e-06   1.26866e-06 DIIS
   @DF-RHF iter  11: -1377.24769948553876   -1.53856e-06   6.38349e-07 DIIS
   @DF-RHF iter  12: -1377.24769990077084   -4.15232e-07   3.05959e-07 DIIS
   @DF-RHF iter  13: -1377.24769999942623   -9.86554e-08   1.17534e-07 DIIS
   @DF-RHF iter  14: -1377.24770001421348   -1.47872e-08   4.87311e-08 DIIS
   @DF-RHF iter  15: -1377.24770001674665   -2.53317e-09   2.14746e-08 DIIS
   @DF-RHF iter  16: -1377.24770001712250   -3.75849e-10   7.94948e-09 DIIS

  ==> Post-Iterations <==

    Orbital Energies (a.u.)
    -----------------------

    Doubly Occupied:                                                      

       1A    -20.578700     2A    -11.296583     3A    -11.246334  
       4A    -11.245041     5A    -11.244359     6A    -11.242491  
       7A    -11.235743     8A    -11.231150     9A    -11.228341  
      10A    -11.227209    11A    -11.224829    12A    -11.223624  
      13A    -11.222548    14A    -11.220394    15A    -11.218490  
      16A    -11.217905    17A    -11.217517    18A    -11.216244  
      19A    -11.211764    20A    -11.208126    21A    -11.206887  
      22A    -11.205942    23A    -11.204850    24A    -11.204614  
      25A    -11.204135    26A    -11.204014    27A    -11.202880  
      28A    -11.202575    29A    -11.202275    30A    -11.201657  
      31A    -11.200901    32A    -11.199970    33A    -11.199442  
      34A    -11.195544    35A    -11.175156    36A     -1.398846  
      37A     -1.188678    38A     -1.173316    39A     -1.161536  
      40A     -1.126954    41A     -1.116090    42A     -1.102692  
      43A     -1.075310    44A     -1.065187    45A     -1.037411  
      46A     -1.025074    47A     -1.024457    48A     -1.009305  
      49A     -1.002980    50A     -0.991934    51A     -0.985533  
      52A     -0.969198    53A     -0.964009    54A     -0.937582  
      55A     -0.897315    56A     -0.872557    57A     -0.858819  
      58A     -0.846681    59A     -0.840653    60A     -0.818010  
      61A     -0.813266    62A     -0.808337    63A     -0.793490  
      64A     -0.783579    65A     -0.753132    66A     -0.733428  
      67A     -0.724785    68A     -0.711274    69A     -0.697744  
      70A     -0.693505    71A     -0.690364    72A     -0.681950  
      73A     -0.670265    74A     -0.661007    75A     -0.651550  
      76A     -0.638722    77A     -0.637074    78A     -0.631145  
      79A     -0.626281    80A     -0.614540    81A     -0.611582  
      82A     -0.605139    83A     -0.600996    84A     -0.593698  
      85A     -0.585938    86A     -0.582280    87A     -0.577846  
      88A     -0.574274    89A     -0.570786    90A     -0.568093  
      91A     -0.541422    92A     -0.537001    93A     -0.531694  
      94A     -0.528678    95A     -0.519703    96A     -0.517672  
      97A     -0.509919    98A     -0.505590    99A     -0.500951  
     100A     -0.496303   101A     -0.492254   102A     -0.481068  
     103A     -0.478706   104A     -0.470335   105A     -0.466172  
     106A     -0.462080   107A     -0.456203   108A     -0.442360  
     109A     -0.430333   110A     -0.402733   111A     -0.368336  
     112A     -0.356927   113A     -0.337939   114A     -0.315684  
     115A     -0.304528   116A     -0.297762   117A     -0.269303  
     118A     -0.264480   119A     -0.256247  

    Virtual:                                                              

     120A      0.067916   121A      0.104388   122A      0.120714  
     123A      0.141688   124A      0.147452   125A      0.163972  
     126A      0.171427   127A      0.203509   128A      0.214460  
     129A      0.246660   130A      0.256925   131A      0.262874  
     132A      0.276034   133A      0.278172   134A      0.283793  
     135A      0.289964   136A      0.293081   137A      0.295771  
     138A      0.302068   139A      0.309911   140A      0.314444  
     141A      0.319720   142A      0.320965   143A      0.329184  
     144A      0.330138   145A      0.334927   146A      0.338813  
     147A      0.340712   148A      0.345793   149A      0.347811  
     150A      0.353120   151A      0.355107   152A      0.360576  
     153A      0.371383   154A      0.375491   155A      0.378465  
     156A      0.381705   157A      0.391110   158A      0.406857  
     159A      0.413927   160A      0.419860   161A      0.423395  
     162A      0.428084   163A      0.431472   164A      0.434913  
     165A      0.436048   166A      0.443889   167A      0.449018  
     168A      0.455673   169A      0.462189   170A      0.469576  
     171A      0.479918   172A      0.482674   173A      0.490663  
     174A      0.498111   175A      0.504731   176A      0.507663  
     177A      0.510861   178A      0.515674   179A      0.521452  
     180A      0.531443   181A      0.547285   182A      0.553233  
     183A      0.576362   184A      0.582297   185A      0.594619  
     186A      0.601079   187A      0.612423   188A      0.616723  
     189A      0.631625   190A      0.645896   191A      0.658811  
     192A      0.683597   193A      0.690794   194A      0.698179  
     195A      0.707462   196A      0.714311   197A      0.719916  
     198A      0.726669   199A      0.735372   200A      0.741011  
     201A      0.746998   202A      0.751511   203A      0.754203  
     204A      0.756971   205A      0.764080   206A      0.767116  
     207A      0.771973   208A      0.777127   209A      0.781399  
     210A      0.784606   211A      0.790979   212A      0.795630  
     213A      0.796740   214A      0.800651   215A      0.802927  
     216A      0.808873   217A      0.810658   218A      0.815239  
     219A      0.818275   220A      0.820895   221A      0.826979  
     222A      0.834814   223A      0.837389   224A      0.838712  
     225A      0.840239   226A      0.842519   227A      0.848919  
     228A      0.852339   229A      0.857528   230A      0.859344  
     231A      0.861361   232A      0.865538   233A      0.868335  
     234A      0.871761   235A      0.874483   236A      0.881083  
     237A      0.883890   238A      0.887078   239A      0.893469  
     240A      0.899566   241A      0.902983   242A      0.906128  
     243A      0.909218   244A      0.913664   245A      0.921451  
     246A      0.932103   247A      0.939049   248A      0.943150  
     249A      0.950846   250A      0.951450   251A      0.961889  
     252A      0.967109   253A      0.979118   254A      0.987303  
     255A      0.997985   256A      1.010620   257A      1.017876  
     258A      1.027169   259A      1.042168   260A      1.046669  
     261A      1.059878   262A      1.072406   263A      1.075915  
     264A      1.082559   265A      1.093881   266A      1.098364  
     267A      1.102025   268A      1.113740   269A      1.120233  
     270A      1.125656   271A      1.130505   272A      1.137754  
     273A      1.141121   274A      1.148410   275A      1.152845  
     276A      1.157603   277A      1.160613   278A      1.161564  
     279A      1.166378   280A      1.172800   281A      1.178105  
     282A      1.179889   283A      1.181277   284A      1.183420  
     285A      1.190095   286A      1.191258   287A      1.194565  
     288A      1.197712   289A      1.200295   290A      1.205496  
     291A      1.211612   292A      1.212649   293A      1.216824  
     294A      1.225332   295A      1.229274   296A      1.235502  
     297A      1.238755   298A      1.240963   299A      1.248005  
     300A      1.252226   301A      1.256207   302A      1.260832  
     303A      1.265999   304A      1.274441   305A      1.277857  
     306A      1.281334   307A      1.288601   308A      1.294891  
     309A      1.300536   310A      1.303735   311A      1.306288  
     312A      1.314501   313A      1.317156   314A      1.333532  
     315A      1.335253   316A      1.342460   317A      1.353539  
     318A      1.361051   319A      1.362722   320A      1.376101  
     321A      1.386863   322A      1.394397   323A      1.399911  
     324A      1.408366   325A      1.419475   326A      1.428264  
     327A      1.446845   328A      1.450763   329A      1.456438  
     330A      1.462943   331A      1.471346   332A      1.480267  
     333A      1.488357   334A      1.497272   335A      1.509700  
     336A      1.514024   337A      1.517634   338A      1.526672  
     339A      1.529639   340A      1.540988   341A      1.543369  
     342A      1.552174   343A      1.557519   344A      1.566685  
     345A      1.582894   346A      1.589645   347A      1.591312  
     348A      1.612328   349A      1.620632   350A      1.628597  
     351A      1.636820   352A      1.644100   353A      1.655473  
     354A      1.659152   355A      1.665231   356A      1.672012  
     357A      1.677161   358A      1.686469   359A      1.691194  
     360A      1.697169   361A      1.701433   362A      1.702373  
     363A      1.712757   364A      1.717072   365A      1.722336  
     366A      1.727614   367A      1.732850   368A      1.741226  
     369A      1.759242   370A      1.762791   371A      1.768393  
     372A      1.777931   373A      1.796990   374A      1.803445  
     375A      1.809627   376A      1.818523   377A      1.822107  
     378A      1.839860   379A      1.858260   380A      1.863580  
     381A      1.887626   382A      1.896866   383A      1.901107  
     384A      1.920193   385A      1.938453   386A      1.952719  
     387A      1.966897   388A      1.986763   389A      1.998581  
     390A      2.011216   391A      2.018679   392A      2.046942  
     393A      2.048957   394A      2.061493   395A      2.066611  
     396A      2.073308   397A      2.081307   398A      2.091313  
     399A      2.101459   400A      2.108898   401A      2.115478  
     402A      2.117745   403A      2.131790   404A      2.141525  
     405A      2.145712   406A      2.158437   407A      2.169537  
     408A      2.184639   409A      2.190866   410A      2.199605  
     411A      2.207798   412A      2.217214   413A      2.218711  
     414A      2.223424   415A      2.230536   416A      2.235558  
     417A      2.243849   418A      2.247006   419A      2.254260  
     420A      2.263335   421A      2.271049   422A      2.278069  
     423A      2.281725   424A      2.284608   425A      2.294373  
     426A      2.299086   427A      2.303021   428A      2.309034  
     429A      2.312054   430A      2.323352   431A      2.328745  
     432A      2.330720   433A      2.340398   434A      2.342664  
     435A      2.344895   436A      2.352337   437A      2.363155  
     438A      2.366704   439A      2.372659   440A      2.375776  
     441A      2.380160   442A      2.382146   443A      2.386887  
     444A      2.393976   445A      2.397761   446A      2.399839  
     447A      2.406923   448A      2.410652   449A      2.417624  
     450A      2.428593   451A      2.437586   452A      2.444079  
     453A      2.448703   454A      2.460385   455A      2.480425  
     456A      2.486717   457A      2.489416   458A      2.496028  
     459A      2.512322   460A      2.515123   461A      2.540998  
     462A      2.546657   463A      2.551368   464A      2.559943  
     465A      2.572036   466A      2.584175   467A      2.592607  
     468A      2.598214   469A      2.606147   470A      2.607143  
     471A      2.612170   472A      2.626016   473A      2.629661  
     474A      2.637969   475A      2.640396   476A      2.648000  
     477A      2.650786   478A      2.660137   479A      2.662995  
     480A      2.671975   481A      2.673848   482A      2.695226  
     483A      2.699230   484A      2.707438   485A      2.722310  
     486A      2.729274   487A      2.736564   488A      2.757078  
     489A      2.765033   490A      2.768970   491A      2.781730  
     492A      2.795677   493A      2.805721   494A      2.808457  
     495A      2.820565   496A      2.833163   497A      2.841852  
     498A      2.846551   499A      2.847107   500A      2.849675  
     501A      2.853659   502A      2.856232   503A      2.860475  
     504A      2.863273   505A      2.869037   506A      2.876059  
     507A      2.880696   508A      2.882599   509A      2.888403  
     510A      2.889697   511A      2.893785   512A      2.900315  
     513A      2.903763   514A      2.907838   515A      2.916247  
     516A      2.920671   517A      2.924746   518A      2.939203  
     519A      2.944854   520A      2.951201   521A      2.962777  
     522A      2.965656   523A      2.971108   524A      2.976557  
     525A      2.982838   526A      2.985363   527A      3.003862  
     528A      3.014162   529A      3.023211   530A      3.027366  
     531A      3.035573   532A      3.036955   533A      3.041240  
     534A      3.047997   535A      3.056521   536A      3.062710  
     537A      3.074542   538A      3.077107   539A      3.081043  
     540A      3.090330   541A      3.101341   542A      3.105896  
     543A      3.112130   544A      3.113890   545A      3.127748  
     546A      3.133951   547A      3.139514   548A      3.158772  
     549A      3.184338   550A      3.192574   551A      3.197367  
     552A      3.206740   553A      3.223121   554A      3.235208  
     555A      3.237760   556A      3.244938   557A      3.249000  
     558A      3.259576   559A      3.269653   560A      3.277375  
     561A      3.280580   562A      3.288392   563A      3.305331  
     564A      3.312187   565A      3.325572   566A      3.344434  
     567A      3.366122   568A      3.392256   569A      3.426036  
     570A      3.429633   571A      3.439223   572A      3.462720  
     573A      3.473503   574A      3.486084   575A      3.513627  
     576A      3.522952   577A      3.528265   578A      3.561416  
     579A      3.582224   580A      3.616340   581A      3.629444  
     582A      3.635772   583A      3.659100   584A      3.666237  
     585A      3.692328   586A      3.710804   587A      3.717990  
     588A      3.770434   589A      3.828601   590A      3.871238  
     591A      3.906599   592A      3.949881   593A      3.961802  
     594A      3.981924   595A      3.996466   596A      4.013645  
     597A      4.020681   598A      4.039643   599A      4.064499  
     600A      4.067491   601A      4.078836   602A      4.085629  
     603A      4.088473   604A      4.098296   605A      4.112920  
     606A      4.125258   607A      4.134881   608A      4.143934  
     609A      4.157111   610A      4.165556   611A      4.190514  
     612A      4.213685   613A      4.283797   614A      4.289551  
     615A      4.309258   616A      4.429413   617A      4.517101  
     618A      4.524361   619A      4.536808   620A      4.543195  
     621A      4.555820   622A      4.566664   623A      4.578742  
     624A      4.581928   625A      4.586875   626A      4.588466  
     627A      4.598021   628A      4.602650   629A      4.604783  
     630A      4.617427   631A      4.631587   632A      4.641063  
     633A      4.669612   634A      4.685367   635A      4.719766  
     636A      4.762213   637A      4.798922   638A      4.817442  
     639A      4.840567   640A      4.862953   641A      4.868799  
     642A      4.913784   643A      4.944144   644A      4.956565  
     645A      4.984010   646A      4.999321   647A      5.057304  
     648A      5.080650   649A      5.143102   650A      5.166135  
     651A      5.214309   652A      5.339299   653A      5.388163  
     654A      5.420447   655A      5.459277  

    Final Occupation by Irrep:
              A 
    DOCC [   119 ]

  Energy converged.

  @DF-RHF Final Energy: -1377.24770001712250

   => Energetics <=

    Nuclear Repulsion Energy =           3612.9033715848163411
    One-Electron Energy =               -9060.5285064055588009
    Two-Electron Energy =                4070.3774348036199626
    DFT Exchange-Correlation Energy =       0.0000000000000000
    Empirical Dispersion Energy =           0.0000000000000000
    PCM Polarization Energy =               0.0000000000000000
    EFP Energy =                            0.0000000000000000
    Total Energy =                      -1377.2477000171224972



Properties will be evaluated at   0.000000,   0.000000,   0.000000 Bohr

Properties computed using the SCF density matrix

  Nuclear Dipole Moment: (a.u.)
     X:    -5.1124      Y:     8.5900      Z:    -0.6155

  Electronic Dipole Moment: (a.u.)
     X:     4.7591      Y:    -7.5488      Z:     0.9791

  Dipole Moment: (a.u.)
     X:    -0.3533      Y:     1.0412      Z:     0.3636     Total:     1.1581

  Dipole Moment: (Debye)
     X:    -0.8980      Y:     2.6465      Z:     0.9241     Total:     2.9435


*** tstop() called on warthog at Thu Nov 16 18:24:22 2017
Module time:
	user time   =     763.25 seconds =      12.72 minutes
	system time =      16.05 seconds =       0.27 minutes
	total time  =        778 seconds =      12.97 minutes
Total time:
	user time   =     763.25 seconds =      12.72 minutes
	system time =      16.05 seconds =       0.27 minutes
	total time  =        778 seconds =      12.97 minutes

*** tstart() called on warthog
*** at Thu Nov 16 18:24:22 2017


         ------------------------------------------------------------
                                   SCF GRAD                          
                          Rob Parrish, Justin Turney,                
                       Andy Simmonett, and Alex Sokolov              
         ------------------------------------------------------------

  ==> Geometry <==

    Molecular point group: c1
    Full point group: C1

    Geometry (in Angstrom), charge = 0, multiplicity = 1:

       Center              X                  Y                   Z               Mass       
    ------------   -----------------  -----------------  -----------------  -----------------
           O         -1.359938439009     2.190676951276     3.106873470861    15.994914619560
           C         -1.054638439009     0.188876951276     1.339573470861    12.000000000000
           C         -0.016638439009     1.177476951276    -1.581626529139    12.000000000000
           C         -0.826538439009     2.601476951276     1.914273470861    12.000000000000
           C          0.484561560991    -0.057323048724    -1.837726529139    12.000000000000
           C         -2.094638439009    -0.386323048724     0.647573470861    12.000000000000
           H         -2.471938439009     0.073276951276    -0.092426529139     1.007825032070
           C          0.448861560991    -0.782223048724    -3.144726529139    12.000000000000
           C          1.781261560991    -0.718723048724     0.329473470861    12.000000000000
           H          1.631861560991     0.108276951276     0.772573470861     1.007825032070
           C         -0.196238439009     4.298476951276     0.324173470861    12.000000000000
           H         -0.041938439009     5.210476951276     0.106573470861     1.007825032070
           C         -0.618538439009     1.568576951276     0.970473470861    12.000000000000
           C         -0.481438439009    -0.510923048724     2.453673470861    12.000000000000
           C          2.307861560991    -3.144823048724    -0.999026529139    12.000000000000
           H          2.486261560991    -3.961123048724    -1.450826529139     1.007825032070
           C         -0.566338439009     3.936676951276     1.616573470861    12.000000000000
           H         -0.640838439009     4.598576951276     2.292873470861     1.007825032070
           C          1.565161560991    -2.144023048724    -1.610326529139    12.000000000000
           C         -0.396938439009     2.161876951276    -2.681426529139    12.000000000000
           H          0.064361560991     1.931176951276    -3.539026529139     1.007825032070
           C         -0.189038439009     1.949376951276    -0.316026529139    12.000000000000
           C         -0.056738439009     3.318976951276    -0.636326529139    12.000000000000
           C          1.241461560991    -0.950023048724    -0.930526529139    12.000000000000
           C          2.784861560991    -2.926923048724     0.287573470861    12.000000000000
           H          3.277661560991    -3.608423048724     0.730073470861     1.007825032070
           C          0.580161560991     0.022676951276     3.229473470861    12.000000000000
           H          0.916661560991     0.886776951276     3.025173470861     1.007825032070
           C         -2.611938439009    -1.647023048724     1.018273470861    12.000000000000
           H         -3.344638439009    -2.015523048724     0.539073470861     1.007825032070
           C         -0.020938439009    -1.406723048724    -5.427326529139    12.000000000000
           H         -0.407238439009    -1.200123048724    -6.269226529139     1.007825032070
           C          1.085361560991    -2.035723048724    -2.984426529139    12.000000000000
           C         -0.983338439009    -1.798723048724     2.794073470861    12.000000000000
           C         -1.917038439009     2.179276951276    -2.869826529139    12.000000000000
           H         -2.161438439009     2.898576951276    -3.488526529139     1.007825032070
           H         -2.351438439009     2.331576951276    -2.005426529139     1.007825032070
           H         -2.210738439009     1.319276951276    -3.236526529139     1.007825032070
           C          0.131961560991     3.500676951276    -2.117126529139    12.000000000000
           H          1.085961560991     3.635076951276    -2.345026529139     1.007825032070
           H         -0.395438439009     4.267376951276    -2.456426529139     1.007825032070
           C         -0.139938439009    -0.493823048724    -4.379526529139    12.000000000000
           H         -0.617238439009     0.317776951276    -4.504826529139     1.007825032070
           C          0.652361560991    -2.614823048724    -5.263326529139    12.000000000000
           H          0.738161560991    -3.212923048724    -5.995926529139     1.007825032070
           C          2.544261560991    -1.715823048724     0.934373470861    12.000000000000
           H          2.905661560991    -1.567423048724     1.799373470861     1.007825032070
           C          1.197961560991    -2.945523048724    -4.029626529139    12.000000000000
           H          1.639261560991    -3.777023048724    -3.902526529139     1.007825032070
           C         -0.386538439009    -2.504823048724     3.880873470861    12.000000000000
           H         -0.717538439009    -3.363923048724     4.115673470861     1.007825032070
           C          0.647961560991    -1.970923048724     4.585873470861    12.000000000000
           H          1.045561560991    -2.465623048724     5.293773470861     1.007825032070
           C         -2.065338439009    -2.340523048724     2.061573470861    12.000000000000
           H         -2.414638439009    -3.192423048724     2.295573470861     1.007825032070
           C         -1.691038439009     3.185676951276     4.069473470861    12.000000000000
           H         -2.308238439009     3.833876951276     3.669973470861     1.007825032070
           H         -0.875538439009     3.645776951276     4.357173470861     1.007825032070
           H         -2.117438439009     2.762176951276     4.842673470861     1.007825032070
           C          1.129861560991    -0.682923048724     4.266873470861    12.000000000000
           H          1.838461560991    -0.303823048724     4.773673470861     1.007825032070

  Nuclear repulsion = 3612.903371584816341

  ==> Basis Set <==

  Basis Set: 6-31G**
    Blend: 6-31G**
    Number of shells: 288
    Number of basis function: 655
    Number of Cartesian functions: 655
    Spherical Harmonics?: false
    Max angular momentum: 2

  ==> DFJKGrad: Density-Fitted SCF Gradients <==

    Gradient:                    1
    J tasked:                  Yes
    K tasked:                  Yes
    wK tasked:                  No
    OpenMP threads:              1
    Integrals threads:           1
    Memory (MB):              1430
    Schwarz Cutoff:          0E+00
    Fitting Condition:       1E-12

   => Auxiliary Basis Set <=

  Basis Set: (6-31G** AUX)
    Blend: CC-PVDZ-JKFIT
    Number of shells: 1074
    Number of basis function: 3485
    Number of Cartesian functions: 3485
    Spherical Harmonics?: false
    Max angular momentum: 3


  -Total Gradient:
     Atom            X                  Y                   Z
    ------   -----------------  -----------------  -----------------
       1       -0.003519163787    -0.013345118319     0.002887656279
       2        0.008247809721     0.009473471121    -0.002040744645
       3       -0.007772055544     0.016975776655     0.006936039228
       4        0.006518981732     0.005608545589    -0.004038629303
       5        0.005492686843    -0.018294331645    -0.004985898496
       6       -0.063277999825     0.062046076873    -0.111152043326
       7        0.055402142967    -0.066587216021     0.105523381603
       8       -0.001779754979     0.013474040879     0.008328754529
       9       -0.020694054013     0.120256870420     0.068408662561
      10        0.018834650817    -0.113783265164    -0.062087233826
      11        0.018187645551     0.137903959894    -0.028316477943
      12       -0.019466289520    -0.131569092484     0.030302703208
      13        0.000083037114    -0.009816803772     0.007000058908
      14        0.007299895836     0.010018812187    -0.000563539223
      15        0.029150413163    -0.120867887773    -0.064127534436
      16       -0.027449536931     0.117059099874     0.065064057786
      17       -0.013791803199     0.102164144673     0.092000708015
      18        0.014117259245    -0.095679938511    -0.094466531078
      19       -0.003826871568    -0.008423550795    -0.011873575791
      20        0.027777899123    -0.012382716033    -0.064335065556
      21       -0.032742487505     0.014806536230     0.061683598882
      22        0.002738875722    -0.008061512685    -0.011176166528
      23        0.002440759508     0.008427264034    -0.010090875616
      24       -0.009543666208     0.011968348792    -0.001116622850
      25        0.074523191997    -0.101495700351     0.062205860592
      26       -0.072100188660     0.096898919855    -0.063080658658
      27        0.042503374166     0.126908294024    -0.039241020162
      28       -0.047655411122    -0.122649554629     0.029143889406
      29       -0.110045424923    -0.048501686912    -0.074663928234
      30        0.104971872528     0.052426927184     0.070113392951
      31       -0.057171780831     0.030124728654    -0.124889553893
      32        0.056341658440    -0.030747365715     0.122352454917
      33        0.007695429994    -0.004614865270     0.007592369381
      34       -0.007597957170    -0.011955141941    -0.002296334304
      35       -0.098310479072    -0.001331251340    -0.008449075821
      36        0.027689309559    -0.073857111302     0.064565260061
      37        0.046651658970    -0.016058267830    -0.087425119409
      38        0.032275180874     0.086951113303     0.036409900658
      39        0.040879295563     0.075206589916    -0.047623110271
      40       -0.085897977852    -0.010121099118     0.022373115007
      41        0.045071698795    -0.068866469376     0.030613135585
      42       -0.072038960424     0.116431207327    -0.025918802010
      43        0.067003575431    -0.111987883908     0.021909739075
      44        0.013350133337    -0.091184624486    -0.108219040714
      45       -0.011100470363     0.086682885038     0.105759123015
      46        0.051629168195     0.022623996050     0.130439575732
      47       -0.050932528463    -0.021458253896    -0.125238440131
      48        0.065677455464    -0.125589981525     0.015166364217
      49       -0.063557772780     0.119455558262    -0.018074812330
      50       -0.046997553222    -0.123707543577     0.034965074636
      51        0.048584968840     0.124005225256    -0.031589005441
      52        0.059937825603    -0.067650777469     0.101821205006
      53       -0.056055625210     0.069826309640    -0.101847030459
      54       -0.045168043995    -0.124408393131     0.040743385966
      55        0.049336390310     0.122757275165    -0.035062821147
      56       -0.027220567809     0.064748447236     0.075524529289
      57        0.064431230935    -0.066341189910     0.039661925086
      58       -0.083900113271    -0.047675685047    -0.031766061324
      59        0.041560389592     0.050942009267    -0.073437988598
      60        0.105361373019     0.047386632842     0.082179856718
      61       -0.102152700691    -0.054544786305    -0.072482036794


*** tstop() called on warthog at Thu Nov 16 18:30:12 2017
Module time:
	user time   =     348.21 seconds =       5.80 minutes
	system time =       1.12 seconds =       0.02 minutes
	total time  =        350 seconds =       5.83 minutes
Total time:
	user time   =    1111.46 seconds =      18.52 minutes
	system time =      17.17 seconds =       0.29 minutes
	total time  =       1128 seconds =      18.80 minutes

			-----------------------------------------
			 OPTKING 2.0: for geometry optimizations 
			  - R.A. King,  Bethel University        
			-----------------------------------------

	Internal coordinates to be generated automatically.
	Detected frag 1 with atoms:  1 2 3 4 5 6 7 8 9 10 11 12 13 14 15 16 17 18 19 20
	 21 22 23 24 25 26 27 28 29 30 31 32 33 34 35 36 37 38 39 40
	 41 42 43 44 45 46 47 48 49 50 51 52 53 54 55 56 57 58 59 60
	 61
	---Fragment 1 Bond Connectivity---
	 1 : 4 56
	 2 : 6 13 14
	 3 : 5 20 22
	 4 : 1 13 17
	 5 : 3 8 24
	 6 : 2 7 29
	 7 : 6
	 8 : 5 33 42
	 9 : 10 24 46
	 10 : 9
	 11 : 12 17 23
	 12 : 11
	 13 : 2 4 22
	 14 : 2 27 34
	 15 : 16 19 25
	 16 : 15
	 17 : 4 11 18
	 18 : 17
	 19 : 15 24 33
	 20 : 3 21 35 39
	 21 : 20
	 22 : 3 13 23
	 23 : 11 22 39
	 24 : 5 9 19
	 25 : 15 26 46
	 26 : 25
	 27 : 14 28 60
	 28 : 27
	 29 : 6 30 54
	 30 : 29
	 31 : 32 42 44
	 32 : 31
	 33 : 8 19 48
	 34 : 14 50 54
	 35 : 20 36 37 38
	 36 : 35
	 37 : 35
	 38 : 35
	 39 : 20 23 40 41
	 40 : 39
	 41 : 39
	 42 : 8 31 43
	 43 : 42
	 44 : 31 45 48
	 45 : 44
	 46 : 9 25 47
	 47 : 46
	 48 : 33 44 49
	 49 : 48
	 50 : 34 51 52
	 51 : 50
	 52 : 50 53 60
	 53 : 52
	 54 : 29 34 55
	 55 : 54
	 56 : 1 57 58 59
	 57 : 56
	 58 : 56
	 59 : 56
	 60 : 27 52 61
	 61 : 60

	---Fragment 1 Geometry and Gradient---
	 O          -2.5699112073        4.1397794835        5.8711399895
	 C          -1.9929778189        0.3569257107        2.5314269948
	 C          -0.0314420930        2.2251089657       -2.9888409846
	 C          -1.5619312880        4.9160789789        3.6174526034
	 C           0.9156886448       -0.1083248632       -3.4727998472
	 C          -3.9582929971       -0.7300447609        1.2237365108
	 H          -4.6712866671        0.1384733698       -0.1746608275
	 C           0.8482254219       -1.4781873369       -5.9426719029
	 C           3.3660965213       -1.3581897275        0.6226146280
	 H           3.0837714371        0.2046137844        1.4599522775
	 C          -0.3708369065        8.1229442264        0.6125990795
	 H          -0.0792521642        9.8463744596        0.2013946730
	 C          -1.1688682524        2.9641808563        1.8339290792
	 C          -0.9097867996       -0.9655046371        4.6367708795
	 C           4.3612263029       -5.9428542985       -1.8878865396
	 H           4.6983534450       -7.4854377408       -2.7416648064
	 C          -1.0702245483        7.4392413116        3.0548811336
	 H          -1.2110091452        8.6900510389        4.3329029173
	 C           2.9577267040       -4.0516163847       -3.0430761246
	 C          -0.7501049413        4.0853553709       -5.0671617855
	 H           0.1216257238        3.6493955521       -6.6877909171
	 C          -0.3572308783        3.6837885677       -0.5972035908
	 C          -0.1072201109        6.2719574793       -1.2024828712
	 C           2.3460223548       -1.7952833820       -1.7584402995
	 C           5.2626256683       -5.5310829741        0.5434351030
	 H           6.1938827066       -6.8189313337        1.3796389168
	 C           1.0963464631        0.0428532274        6.1028204133
	 H           1.7322393068        1.6757655789        5.7167493644
	 C          -4.9358483257       -3.1124224966        1.9242579883
	 H          -6.3204506633       -3.8087865766        1.0187012254
	 C          -0.0395679154       -2.6583213069      -10.2561607738
	 H          -0.7695691205       -2.2679038879      -11.8471212051
	 C           2.0510361054       -3.8469590445       -5.6397488038
	 C          -1.8582403457       -3.3990939510        5.2800336551
	 C          -3.6226776359        4.1182366056       -5.4231861890
	 H          -4.0845267028        5.4775166130       -6.5923597474
	 H          -4.4435746681        4.4060418957       -3.7897069197
	 H          -4.1776902012        2.4930721313       -6.1161487619
	 C           0.2493712103        6.6153207176       -4.0007893287
	 H           2.0521699411        6.8692999099       -4.4314579144
	 H          -0.7472703521        8.0641737437       -4.6419734056
	 C          -0.2644453252       -0.9331903202       -8.2761057318
	 H          -1.1664116084        0.6005114093       -8.5128884162
	 C           1.2327846899       -4.9412994480       -9.9462456880
	 H           1.3949231921       -6.0715446481      -11.3306590530
	 C           4.8079575607       -3.2424356546        1.7657099658
	 H           5.4909045851       -2.9620002965        3.4003230707
	 C           2.2638192680       -5.5662318802       -7.6148905579
	 H           3.0977554104       -7.1375391597       -7.3747063664
	 C          -0.7304517896       -4.7334295734        7.3337880163
	 H          -1.3559511395       -6.3568932942        7.7774957123
	 C           1.2244698949       -3.7245047911        8.6660449400
	 H           1.9758250053       -4.6593523090       10.0037820695
	 C          -3.9029240214       -4.4229475698        3.8958092627
	 H          -4.5630053597       -6.0328052624        4.3380051778
	 C          -3.1955995299        6.0200569858        7.6901903650
	 H          -4.3619384991        7.2449774651        6.9352447749
	 H          -1.6545278685        6.8895199795        8.2338645734
	 H          -4.0013787530        5.2197579685        9.1513266109
	 C           2.1351289183       -1.2905375319        8.0632223036
	 H           3.4741888561       -0.5741423549        9.0209355077
	            -0.0035191638       -0.0133451183        0.0028876563
	             0.0082478097        0.0094734711       -0.0020407446
	            -0.0077720555        0.0169757767        0.0069360392
	             0.0065189817        0.0056085456       -0.0040386293
	             0.0054926868       -0.0182943316       -0.0049858985
	            -0.0632779998        0.0620460769       -0.1111520433
	             0.0554021430       -0.0665872160        0.1055233816
	            -0.0017797550        0.0134740409        0.0083287545
	            -0.0206940540        0.1202568704        0.0684086626
	             0.0188346508       -0.1137832652       -0.0620872338
	             0.0181876456        0.1379039599       -0.0283164779
	            -0.0194662895       -0.1315690925        0.0303027032
	             0.0000830371       -0.0098168038        0.0070000589
	             0.0072998958        0.0100188122       -0.0005635392
	             0.0291504132       -0.1208678878       -0.0641275344
	            -0.0274495369        0.1170590999        0.0650640578
	            -0.0137918032        0.1021641447        0.0920007080
	             0.0141172592       -0.0956799385       -0.0944665311
	            -0.0038268716       -0.0084235508       -0.0118735758
	             0.0277778991       -0.0123827160       -0.0643350656
	            -0.0327424875        0.0148065362        0.0616835989
	             0.0027388757       -0.0080615127       -0.0111761665
	             0.0024407595        0.0084272640       -0.0100908756
	            -0.0095436662        0.0119683488       -0.0011166228
	             0.0745231920       -0.1014957004        0.0622058606
	            -0.0721001887        0.0968989199       -0.0630806587
	             0.0425033742        0.1269082940       -0.0392410202
	            -0.0476554111       -0.1226495546        0.0291438894
	            -0.1100454249       -0.0485016869       -0.0746639282
	             0.1049718725        0.0524269272        0.0701133930
	            -0.0571717808        0.0301247287       -0.1248895539
	             0.0563416584       -0.0307473657        0.1223524549
	             0.0076954300       -0.0046148653        0.0075923694
	            -0.0075979572       -0.0119551419       -0.0022963343
	            -0.0983104791       -0.0013312513       -0.0084490758
	             0.0276893096       -0.0738571113        0.0645652601
	             0.0466516590       -0.0160582678       -0.0874251194
	             0.0322751809        0.0869511133        0.0364099007
	             0.0408792956        0.0752065899       -0.0476231103
	            -0.0858979779       -0.0101210991        0.0223731150
	             0.0450716988       -0.0688664694        0.0306131356
	            -0.0720389604        0.1164312073       -0.0259188020
	             0.0670035754       -0.1119878839        0.0219097391
	             0.0133501333       -0.0911846245       -0.1082190407
	            -0.0111004704        0.0866828850        0.1057591230
	             0.0516291682        0.0226239961        0.1304395757
	            -0.0509325285       -0.0214582539       -0.1252384401
	             0.0656774555       -0.1255899815        0.0151663642
	            -0.0635577728        0.1194555583       -0.0180748123
	            -0.0469975532       -0.1237075436        0.0349650746
	             0.0485849688        0.1240052253       -0.0315890054
	             0.0599378256       -0.0676507775        0.1018212050
	            -0.0560556252        0.0698263096       -0.1018470305
	            -0.0451680440       -0.1244083931        0.0407433860
	             0.0493363903        0.1227572752       -0.0350628211
	            -0.0272205678        0.0647484472        0.0755245293
	             0.0644312309       -0.0663411899        0.0396619251
	            -0.0839001133       -0.0476756850       -0.0317660613
	             0.0415603896        0.0509420093       -0.0734379886
	             0.1053613730        0.0473866328        0.0821798567
	            -0.1021527007       -0.0545447863       -0.0724820368

	Previous optimization step data not found.  Starting new optimization.

	---Fragment 1 Intrafragment Coordinates---
	 - Coordinate -           - BOHR/RAD -       - ANG/DEG -
	 R(1,4)           =         2.588005	       1.369513
	 R(1,56)          =         2.689958	       1.423464
	 R(2,6)           =         2.598850	       1.375252
	 R(2,13)          =         2.821957	       1.493315
	 R(2,14)          =         2.711936	       1.435095
	 R(3,5)           =         2.564408	       1.357026
	 R(3,20)          =         2.880349	       1.524215
	 R(3,22)          =         2.820251	       1.492412
	 R(4,13)          =         2.673081	       1.414533
	 R(4,17)          =         2.631465	       1.392512
	 R(5,8)           =         2.825127	       1.494993
	 R(5,24)          =         2.798341	       1.480818
	 R(6,7)           =         1.793934	       0.949309
	 R(6,29)          =         2.668720	       1.412226
	 R(8,33)          =         2.673873	       1.414953
	 R(8,42)          =         2.641964	       1.398067
	 R(9,10)          =         1.795326	       0.950046
	 R(9,24)          =         2.626980	       1.390138
	 R(9,46)          =         2.633631	       1.393658
	 R(11,12)         =         1.795640	       0.950212
	 R(11,17)         =         2.630843	       1.392182
	 R(11,23)         =         2.605795	       1.378927
	 R(13,22)         =         2.662141	       1.408745
	 R(14,27)         =         2.681540	       1.419010
	 R(14,34)         =         2.689927	       1.423448
	 R(15,16)         =         1.795036	       0.949892
	 R(15,19)         =         2.623176	       1.388125
	 R(15,25)         =         2.625529	       1.389370
	 R(17,18)         =         1.793791	       0.949233
	 R(19,24)         =         2.667491	       1.411576
	 R(19,33)         =         2.758021	       1.459482
	 R(20,21)         =         1.891141	       1.000749
	 R(20,35)         =         2.894738	       1.531829
	 R(20,39)         =         2.921785	       1.546142
	 R(22,23)         =         2.669735	       1.412763
	 R(23,39)         =         2.841756	       1.503792
	 R(25,26)         =         1.795837	       0.950316
	 R(25,46)         =         2.634119	       1.393916
	 R(27,28)         =         1.794384	       0.949547
	 R(27,60)         =         2.588470	       1.369759
	 R(29,30)         =         1.795015	       0.949881
	 R(29,54)         =         2.582910	       1.366817
	 R(31,32)         =         1.793455	       0.949056
	 R(31,42)         =         2.635766	       1.394788
	 R(31,44)         =         2.631904	       1.392744
	 R(33,48)         =         2.627234	       1.390273
	 R(34,50)         =         2.696343	       1.426843
	 R(34,54)         =         2.673029	       1.414506
	 R(35,36)         =         1.851463	       0.979752
	 R(35,37)         =         1.850664	       0.979329
	 R(35,38)         =         1.851863	       0.979964
	 R(39,40)         =         1.870846	       0.990009
	 R(39,41)         =         1.871787	       0.990507
	 R(42,43)         =         1.794951	       0.949847
	 R(44,45)         =         1.794532	       0.949625
	 R(44,48)         =         2.624650	       1.388905
	 R(46,47)         =         1.793605	       0.949135
	 R(48,49)         =         1.795033	       0.949891
	 R(50,51)         =         1.795483	       0.950129
	 R(50,52)         =         2.571878	       1.360979
	 R(52,53)         =         1.796668	       0.950756
	 R(52,60)         =         2.667750	       1.411713
	 R(54,55)         =         1.795240	       0.950000
	 R(56,57)         =         1.852220	       0.980153
	 R(56,58)         =         1.851067	       0.979543
	 R(56,59)         =         1.850589	       0.979289
	 R(60,61)         =         1.795416	       0.950093
	 B(1,4,13)        =         2.003431	     114.788133
	 B(1,4,17)        =         2.149049	     123.131455
	 B(1,56,57)       =         1.910393	     109.457474
	 B(1,56,58)       =         1.910592	     109.468874
	 B(1,56,59)       =         1.910192	     109.445925
	 B(2,6,7)         =         2.083234	     119.360510
	 B(2,6,29)        =         2.115656	     121.218185
	 B(2,13,4)        =         2.056457	     117.826301
	 B(2,13,22)       =         2.170626	     124.367692
	 B(2,14,27)       =         2.141088	     122.675322
	 B(2,14,34)       =         2.078281	     119.076741
	 B(3,5,8)         =         2.211030	     126.682666
	 B(3,5,24)        =         2.241719	     128.441061
	 B(3,20,21)       =         1.933117	     110.759439
	 B(3,20,35)       =         1.921624	     110.100925
	 B(3,20,39)       =         1.782918	     102.153681
	 B(3,22,13)       =         2.304796	     132.055101
	 B(3,22,23)       =         1.873743	     107.357542
	 B(4,1,56)        =         2.059864	     118.021521
	 B(4,13,22)       =         2.045153	     117.178663
	 B(4,17,11)       =         2.091305	     119.822972
	 B(4,17,18)       =         2.096266	     120.107190
	 B(5,3,20)        =         2.145576	     122.932435
	 B(5,3,22)        =         2.309508	     132.325083
	 B(5,8,33)        =         1.896285	     108.649116
	 B(5,8,42)        =         2.321548	     133.014915
	 B(5,24,9)        =         2.282937	     130.802629
	 B(5,24,19)       =         1.909322	     109.396097
	 B(6,2,13)        =         2.074763	     118.875158
	 B(6,2,14)        =         2.081426	     119.256948
	 B(6,29,30)       =         2.090295	     119.765063
	 B(6,29,54)       =         2.102288	     120.452208
	 B(7,6,29)        =         2.084295	     119.421284
	 B(8,5,24)        =         1.829154	     104.802796
	 B(8,33,19)       =         1.896824	     108.680019
	 B(8,33,48)       =         2.130572	     122.072755
	 B(8,42,31)       =         2.085814	     119.508334
	 B(8,42,43)       =         2.099485	     120.291636
	 B(9,24,19)       =         2.080822	     119.222322
	 B(9,46,25)       =         2.111477	     120.978735
	 B(9,46,47)       =         2.085368	     119.482795
	 B(10,9,24)       =         2.101929	     120.431635
	 B(10,9,46)       =         2.101862	     120.427826
	 B(11,17,18)      =         2.095614	     120.069836
	 B(11,23,22)      =         2.119095	     121.415215
	 B(11,23,39)      =         2.230360	     127.790222
	 B(12,11,17)      =         2.100394	     120.343702
	 B(12,11,23)      =         2.101139	     120.386414
	 B(13,2,14)       =         2.124419	     121.720254
	 B(13,4,17)       =         2.129437	     122.007771
	 B(13,22,23)      =         2.091683	     119.844593
	 B(14,27,28)      =         2.082530	     119.320197
	 B(14,27,60)      =         2.118336	     121.371716
	 B(14,34,50)      =         2.074164	     118.840849
	 B(14,34,54)      =         2.085646	     119.498685
	 B(15,19,24)      =         2.118182	     121.362886
	 B(15,19,33)      =         2.270521	     130.091244
	 B(15,25,26)      =         2.090653	     119.785621
	 B(15,25,46)      =         2.102147	     120.444171
	 B(16,15,19)      =         2.106682	     120.703995
	 B(16,15,25)      =         2.106851	     120.713676
	 B(17,11,23)      =         2.081652	     119.269878
	 B(19,15,25)      =         2.069652	     118.582328
	 B(19,33,48)      =         2.255739	     129.244317
	 B(20,3,22)       =         1.822476	     104.420171
	 B(20,35,36)      =         1.910860	     109.484198
	 B(20,35,37)      =         1.910685	     109.474191
	 B(20,35,38)      =         1.910772	     109.479182
	 B(20,39,23)      =         1.784257	     102.230401
	 B(20,39,40)      =         1.942464	     111.294966
	 B(20,39,41)      =         1.942371	     111.289670
	 B(21,20,35)      =         1.933332	     110.771773
	 B(21,20,39)      =         1.933387	     110.774905
	 B(22,23,39)      =         1.930653	     110.618245
	 B(23,39,40)      =         1.943357	     111.346182
	 B(23,39,41)      =         1.943384	     111.347720
	 B(24,9,46)       =         2.079395	     119.140539
	 B(24,19,33)      =         1.891528	     108.376592
	 B(25,46,47)      =         2.086340	     119.538461
	 B(26,25,46)      =         2.090384	     119.770174
	 B(27,14,34)      =         2.063769	     118.245252
	 B(27,60,52)      =         2.099173	     120.273740
	 B(27,60,61)      =         2.091806	     119.851634
	 B(28,27,60)      =         2.082319	     119.308086
	 B(29,54,34)      =         2.102306	     120.453242
	 B(29,54,55)      =         2.089741	     119.733338
	 B(30,29,54)      =         2.090603	     119.782728
	 B(31,42,43)      =         2.097886	     120.200023
	 B(31,44,45)      =         2.093431	     119.944749
	 B(31,44,48)      =         2.095592	     120.068551
	 B(32,31,42)      =         2.081967	     119.287949
	 B(32,31,44)      =         2.082958	     119.344715
	 B(33,8,42)       =         2.062646	     118.180938
	 B(33,48,44)      =         2.071627	     118.695501
	 B(33,48,49)      =         2.105836	     120.655487
	 B(34,50,51)      =         2.082856	     119.338871
	 B(34,50,52)      =         2.115723	     121.222012
	 B(34,54,55)      =         2.091139	     119.813411
	 B(35,20,39)      =         1.954665	     111.994050
	 B(36,35,37)      =         1.909809	     109.423998
	 B(36,35,38)      =         1.910523	     109.464897
	 B(37,35,38)      =         1.911150	     109.500848
	 B(40,39,41)      =         1.906200	     109.217229
	 B(42,31,44)      =         2.118260	     121.367331
	 B(44,48,49)      =         2.105722	     120.649011
	 B(45,44,48)      =         2.094163	     119.986698
	 B(50,34,54)      =         2.123312	     121.656817
	 B(50,52,53)      =         2.093759	     119.963553
	 B(50,52,60)      =         2.094779	     120.021970
	 B(51,50,52)      =         2.084605	     119.439096
	 B(52,60,61)      =         2.092207	     119.874626
	 B(53,52,60)      =         2.094648	     120.014463
	 B(57,56,58)      =         1.910625	     109.470726
	 B(57,56,59)      =         1.910944	     109.489014
	 B(58,56,59)      =         1.911054	     109.495302
	 D(1,4,13,2)      =         0.051287	       2.938511
	 D(1,4,13,22)     =         3.041442	     174.261793
	 D(1,4,17,11)     =        -2.989077	    -171.261484
	 D(1,4,17,18)     =         0.152762	       8.752607
	 D(2,6,29,30)     =         3.115482	     178.503953
	 D(2,6,29,54)     =        -0.026348	      -1.509630
	 D(2,13,4,17)     =        -3.037792	    -174.052671
	 D(2,13,22,3)     =        -0.027381	      -1.568819
	 D(2,13,22,23)    =         2.918076	     167.193463
	 D(2,14,27,28)    =         0.028716	       1.645279
	 D(2,14,27,60)    =        -3.112660	    -178.342305
	 D(2,14,34,50)    =         3.113477	     178.389064
	 D(2,14,34,54)    =        -0.040041	      -2.294203
	 D(3,5,8,33)      =         3.136468	     179.706392
	 D(3,5,8,42)      =        -0.088096	      -5.047554
	 D(3,5,24,9)      =        -0.160223	      -9.180097
	 D(3,5,24,19)     =         3.138476	     179.821432
	 D(3,20,35,36)    =         3.007913	     172.340717
	 D(3,20,35,37)    =         0.914357	      52.388788
	 D(3,20,35,38)    =        -1.180789	     -67.654202
	 D(3,20,39,23)    =        -0.574839	     -32.935861
	 D(3,20,39,40)    =         1.501451	      86.026801
	 D(3,20,39,41)    =        -2.651118	    -151.897867
	 D(3,22,13,4)     =        -3.006631	    -172.267282
	 D(3,22,23,11)    =         3.115691	     178.515969
	 D(3,22,23,39)    =         0.052106	       2.985436
	 D(4,1,56,57)     =         0.978687	      56.074623
	 D(4,1,56,58)     =        -1.115526	     -63.914918
	 D(4,1,56,59)     =         3.073045	     176.072516
	 D(4,13,2,6)      =         1.974939	     113.155672
	 D(4,13,2,14)     =        -1.088969	     -62.393328
	 D(4,13,22,23)    =        -0.061174	      -3.505000
	 D(4,17,11,12)    =         3.109970	     178.188144
	 D(4,17,11,23)    =        -0.031120	      -1.783073
	 D(5,3,20,21)     =        -0.360288	     -20.642994
	 D(5,3,20,35)     =         1.784027	     102.217214
	 D(5,3,20,39)     =        -2.419985	    -138.654908
	 D(5,3,22,13)     =        -0.721830	     -41.357807
	 D(5,3,22,23)     =         2.597801	     148.843057
	 D(5,8,33,19)     =        -0.020516	      -1.175454
	 D(5,8,33,48)     =         3.130973	     179.391537
	 D(5,8,42,31)     =        -3.113069	    -178.365731
	 D(5,8,42,43)     =         0.029063	       1.665189
	 D(5,24,9,10)     =         0.083745	       4.798243
	 D(5,24,9,46)     =        -3.058040	    -175.212791
	 D(5,24,19,15)    =         3.111402	     178.270190
	 D(5,24,19,33)    =         0.044469	       2.547880
	 D(6,2,13,22)     =        -1.003344	     -57.487400
	 D(6,2,14,27)     =        -3.125733	    -179.091306
	 D(6,2,14,34)     =         0.026454	       1.515719
	 D(6,29,54,34)    =         0.012202	       0.699128
	 D(6,29,54,55)    =        -3.128801	    -179.267116
	 D(7,6,2,13)      =         0.081235	       4.654447
	 D(7,6,2,14)      =        -3.136096	    -179.685059
	 D(7,6,29,30)     =        -0.025183	      -1.442898
	 D(7,6,29,54)     =         3.116172	     178.543519
	 D(8,5,3,20)      =        -0.271789	     -15.572343
	 D(8,5,3,22)      =         3.002365	     172.022871
	 D(8,5,24,9)      =         2.929259	     167.834162
	 D(8,5,24,19)     =        -0.055228	      -3.164308
	 D(8,33,19,15)    =        -3.072945	    -176.066795
	 D(8,33,19,24)    =        -0.014704	      -0.842495
	 D(8,33,48,44)    =        -0.013851	      -0.793597
	 D(8,33,48,49)    =         3.127871	     179.213823
	 D(8,42,31,32)    =        -3.120755	    -178.806094
	 D(8,42,31,44)    =         0.021277	       1.219081
	 D(9,24,19,15)    =         0.105936	       6.069665
	 D(9,24,19,33)    =        -2.960997	    -169.652646
	 D(9,46,25,15)    =         0.042080	       2.411000
	 D(9,46,25,26)    =        -3.098335	    -177.521504
	 D(10,9,24,19)    =         3.055419	     175.062617
	 D(10,9,46,25)    =        -3.127273	    -179.179571
	 D(10,9,46,47)    =         0.013690	       0.784398
	 D(11,17,4,13)    =         0.095580	       5.476326
	 D(11,23,22,13)   =         0.126288	       7.235767
	 D(11,23,39,20)   =        -2.720586	    -155.878088
	 D(11,23,39,40)   =         1.486940	      85.195395
	 D(11,23,39,41)   =        -0.645022	     -36.957051
	 D(12,11,17,18)   =        -0.031869	      -1.825942
	 D(12,11,23,22)   =         3.063380	     175.518719
	 D(12,11,23,39)   =        -0.170639	      -9.776884
	 D(13,2,6,29)     =        -3.059430	    -175.292436
	 D(13,2,14,27)    =        -0.062114	      -3.558855
	 D(13,2,14,34)    =         3.090073	     177.048169
	 D(13,4,1,56)     =        -3.061088	    -175.387430
	 D(13,4,17,18)    =        -3.045767	    -174.509583
	 D(13,22,3,20)    =         2.534558	     145.219491
	 D(13,22,23,39)   =        -2.937298	    -168.294766
	 D(14,2,6,29)     =         0.006424	       0.368058
	 D(14,2,13,22)    =         2.215933	     126.963600
	 D(14,27,60,52)   =         0.003029	       0.173545
	 D(14,27,60,61)   =        -3.138687	    -179.833501
	 D(14,34,50,51)   =         3.138718	     179.835277
	 D(14,34,50,52)   =        -0.003792	      -0.217263
	 D(14,34,54,29)   =         0.020934	       1.199404
	 D(14,34,54,55)   =        -3.121249	    -178.834379
	 D(15,19,33,48)   =         0.057820	       3.312827
	 D(15,25,46,47)   =        -3.098884	    -177.552949
	 D(16,15,19,24)   =         3.091959	     177.156214
	 D(16,15,19,33)   =        -0.142295	      -8.152913
	 D(16,15,25,26)   =        -0.025376	      -1.453915
	 D(16,15,25,46)   =         3.117395	     178.613592
	 D(17,4,1,56)     =         0.027328	       1.565783
	 D(17,4,13,22)    =        -0.047637	      -2.729389
	 D(17,11,23,22)   =        -0.078716	      -4.510076
	 D(17,11,23,39)   =         2.970451	     170.194321
	 D(18,17,11,23)   =         3.110226	     178.202841
	 D(19,15,25,26)   =         3.116418	     178.557571
	 D(19,15,25,46)   =        -0.023997	      -1.374923
	 D(19,24,9,46)    =        -0.086366	      -4.948417
	 D(19,33,8,42)    =        -3.093307	    -177.233446
	 D(19,33,48,44)   =         3.139847	     179.899958
	 D(19,33,48,49)   =        -0.001617	      -0.092622
	 D(20,3,5,24)     =         2.806968	     160.827413
	 D(20,3,22,23)    =        -0.428996	     -24.579645
	 D(20,39,23,22)   =         0.336752	      19.294456
	 D(21,20,3,22)    =         2.680233	     153.566034
	 D(21,20,35,36)   =        -1.131084	     -64.806316
	 D(21,20,35,37)   =         3.058546	     175.241754
	 D(21,20,35,38)   =         0.963400	      55.198764
	 D(21,20,39,23)   =        -2.634343	    -150.936748
	 D(21,20,39,40)   =        -0.558053	     -31.974087
	 D(21,20,39,41)   =         1.572563	      90.101246
	 D(22,3,5,24)     =        -0.202063	     -11.577373
	 D(22,3,20,35)    =        -1.458637	     -83.573758
	 D(22,3,20,39)    =         0.620536	      35.554120
	 D(22,23,39,40)   =        -1.738908	     -99.632062
	 D(22,23,39,41)   =         2.412315	     138.215493
	 D(23,39,20,35)   =         1.480872	      84.847744
	 D(24,5,8,33)     =         0.045770	       2.622419
	 D(24,5,8,42)     =         3.104390	     177.868473
	 D(24,9,46,25)    =         0.014512	       0.831463
	 D(24,9,46,47)    =        -3.127710	    -179.204568
	 D(24,19,15,25)   =        -0.049834	      -2.855271
	 D(24,19,33,48)   =         3.116061	     178.537127
	 D(25,15,19,33)   =         2.999097	     171.835602
	 D(26,25,46,47)   =         0.043887	       2.514547
	 D(27,14,34,50)   =        -0.017993	      -1.030915
	 D(27,14,34,54)   =         3.111675	     178.285818
	 D(27,60,52,50)   =        -0.025419	      -1.456409
	 D(27,60,52,53)   =         3.116920	     178.586346
	 D(28,27,14,34)   =        -3.123388	    -178.956948
	 D(28,27,60,52)   =        -3.138347	    -179.814041
	 D(28,27,60,61)   =         0.003123	       0.178913
	 D(29,54,34,50)   =        -3.132931	    -179.503736
	 D(30,29,54,34)   =        -3.129628	    -179.314458
	 D(30,29,54,55)   =         0.012554	       0.719299
	 D(31,42,8,33)    =        -0.060680	      -3.476730
	 D(31,44,48,33)   =        -0.027627	      -1.582882
	 D(31,44,48,49)   =         3.113837	     178.409699
	 D(32,31,42,43)   =         0.020298	       1.163014
	 D(32,31,44,45)   =         0.024480	       1.402597
	 D(32,31,44,48)   =        -3.116892	    -178.584737
	 D(33,8,42,43)    =         3.081452	     176.554191
	 D(33,48,44,45)   =         3.114187	     178.429789
	 D(34,14,27,60)   =         0.018421	       1.055467
	 D(34,50,52,53)   =        -3.116716	    -178.574660
	 D(34,50,52,60)   =         0.025623	       1.468073
	 D(35,20,39,40)   =        -2.726023	    -156.189594
	 D(35,20,39,41)   =        -0.595406	     -34.114261
	 D(36,35,20,39)   =         1.036916	      59.410939
	 D(37,35,20,39)   =        -1.056640	     -60.540991
	 D(38,35,20,39)   =         3.131400	     179.416019
	 D(42,8,33,48)    =         0.058181	       3.333545
	 D(42,31,44,45)   =        -3.117552	    -178.622592
	 D(42,31,44,48)   =         0.024261	       1.390073
	 D(43,42,31,44)   =        -3.120855	    -178.811811
	 D(45,44,48,49)   =        -0.027535	      -1.577630
	 D(50,34,54,55)   =         0.008072	       0.462480
	 D(50,52,60,61)   =         3.116297	     178.550639
	 D(51,50,34,54)   =         0.009319	       0.533925
	 D(51,50,52,53)   =         0.023959	       1.372748
	 D(51,50,52,60)   =        -3.116888	    -178.584519
	 D(52,50,34,54)   =        -3.133191	    -179.518615
	 D(53,52,60,61)   =        -0.024550	      -1.406606
	 R(1,14)          =         5.508503	       2.914974
	 R(1,27)          =         5.502720	       2.911914
	 R(2,5)           =         6.687865	       3.539066
	 R(2,9)           =         5.941790	       3.144260
	 R(2,24)          =         6.470076	       3.423817
	 R(3,6)           =         6.472936	       3.425330
	 R(4,27)          =         6.082090	       3.218504
	 R(5,6)           =         6.797035	       3.596836
	 R(6,24)          =         7.054963	       3.733326
	 R(9,13)          =         6.380915	       3.376635
	 R(9,14)          =         5.877995	       3.110501
	 R(9,22)          =         6.385348	       3.378981
	 R(9,27)          =         6.094862	       3.225262
	 R(13,24)         =         6.921855	       3.662888
	 R(14,46)         =         6.791171	       3.593733
	 R(20,42)         =         5.976536	       3.162647
	 R(27,46)         =         6.586327	       3.485334
	 R(35,42)         =         6.703267	       3.547216
	 R(46,60)         =         7.114252	       3.764700

	Current energy   :     -1377.2477000171

	Generating empirical Hessian (Schlegel '84) for each fragment.
	Taking RFO optimization step.
	Going to follow RFO solution 1.
	Using RFO vector 1.

	Determining step-restricting scale parameter for RS-RFO.
	Maximum step size allowed    0.50000

	 Iter      |step|        alpha        rfo_root  
	------------------------------------------------
	    0     0.65099       1.00000           1
	    1     0.54120       1.77655           1
	    2     0.50455       2.17100           1
	    3     0.50007       2.22588           1
	    4     0.50000       2.22671           1
	------------------------------------------------
	Norm of target step-size    0.50000
	Projected energy change by RFO approximation:        -0.2521122131

	Back-transformation to cartesian coordinates...
	Successfully converged to displaced geometry.

	--- Internal Coordinate Step in ANG or DEG, aJ/ANG or AJ/DEG ---
	 ---------------------------------------------------------------------------
	   Coordinate                Previous        Force       Change         New 
	   ----------                --------       ------       ------       ------
	    1 R(1,4)          =      1.369513    -0.149590    -0.007925     1.361589
	    2 R(1,56)         =      1.423464    -0.075082    -0.004300     1.419164
	    3 R(2,6)          =      1.375252    -0.081598    -0.004463     1.370789
	    4 R(2,13)         =      1.493315     0.035920     0.002153     1.495468
	    5 R(2,14)         =      1.435095    -0.029627    -0.001741     1.433354
	    6 R(3,5)          =      1.357026    -0.093340    -0.005196     1.351830
	    7 R(3,20)         =      1.524215     0.038365     0.002491     1.526706
	    8 R(3,22)         =      1.492412     0.052450     0.002994     1.495406
	    9 R(4,13)         =      1.414533    -0.054723    -0.003124     1.411409
	   10 R(4,17)         =      1.392512    -0.080262    -0.004360     1.388151
	   11 R(5,8)          =      1.494993     0.028629     0.001544     1.496536
	   12 R(5,24)         =      1.480818     0.046808     0.002678     1.483496
	   13 R(6,7)          =      0.949309     1.124701     0.056416     1.005725
	   14 R(6,29)         =      1.412226    -0.009099    -0.000521     1.411705
	   15 R(8,33)         =      1.414953    -0.092347    -0.005313     1.409639
	   16 R(8,42)         =      1.398067    -0.048841    -0.002854     1.395213
	   17 R(9,10)         =      0.950046     1.078991     0.054194     1.004240
	   18 R(9,24)         =      1.390138    -0.043164    -0.002528     1.387610
	   19 R(9,46)         =      1.393658    -0.048740    -0.002708     1.390950
	   20 R(11,12)        =      0.950212     1.123585     0.056451     1.006662
	   21 R(11,17)        =      1.392182    -0.031727    -0.001696     1.390486
	   22 R(11,23)        =      1.378927    -0.056461    -0.003034     1.375893
	   23 R(13,22)        =      1.408745    -0.051614    -0.002983     1.405762
	   24 R(14,27)        =      1.419010     0.007204     0.000383     1.419393
	   25 R(14,34)        =      1.423448    -0.084719    -0.004874     1.418574
	   26 R(15,16)        =      0.949892     1.126216     0.056551     1.006443
	   27 R(15,19)        =      1.388125    -0.039218    -0.002124     1.386001
	   28 R(15,25)        =      1.389370    -0.021180    -0.001084     1.388286
	   29 R(17,18)        =      0.949233     1.113300     0.055837     1.005070
	   30 R(19,24)        =      1.411576    -0.097982    -0.005566     1.406009
	   31 R(19,33)        =      1.459482     0.035023     0.002113     1.461595
	   32 R(20,21)        =      1.000749     0.587968     0.032068     1.032817
	   33 R(20,35)        =      1.531829     0.066967     0.004420     1.536249
	   34 R(20,39)        =      1.546142    -0.005254    -0.000242     1.545900
	   35 R(22,23)        =      1.412763    -0.069656    -0.004054     1.408709
	   36 R(23,39)        =      1.503792     0.037274     0.002405     1.506197
	   37 R(25,26)        =      0.950316     1.122528     0.056408     1.006724
	   38 R(25,46)        =      1.393916    -0.054873    -0.002958     1.390958
	   39 R(27,28)        =      0.949547     1.110343     0.055720     1.005267
	   40 R(27,60)        =      1.369759    -0.084085    -0.004500     1.365259
	   41 R(29,30)        =      0.949881     1.126075     0.056543     1.006424
	   42 R(29,54)        =      1.366817    -0.071433    -0.003748     1.363069
	   43 R(31,32)        =      0.949056     1.138298     0.057073     1.006129
	   44 R(31,42)        =      1.394788    -0.056702    -0.003101     1.391687
	   45 R(31,44)        =      1.392744    -0.054990    -0.002943     1.389801
	   46 R(33,48)        =      1.390273    -0.055401    -0.003048     1.387224
	   47 R(34,50)        =      1.426843    -0.046110    -0.002654     1.424190
	   48 R(34,54)        =      1.414506     0.005426     0.000335     1.414841
	   49 R(35,36)        =      0.979752     0.839547     0.044330     1.024082
	   50 R(35,37)        =      0.979329     0.826804     0.043628     1.022957
	   51 R(35,38)        =      0.979964     0.820613     0.043345     1.023309
	   52 R(39,40)        =      0.990009     0.735701     0.039478     1.029487
	   53 R(39,41)        =      0.990507     0.723287     0.038841     1.029348
	   54 R(42,43)        =      0.949847     1.089555     0.054706     1.004553
	   55 R(44,45)        =      0.949625     1.130249     0.056727     1.006352
	   56 R(44,48)        =      1.388905    -0.019670    -0.001016     1.387889
	   57 R(46,47)        =      0.949135     1.127760     0.056552     1.005688
	   58 R(48,49)        =      0.949891     1.124695     0.056474     1.006365
[...]
	  266 D(13,2,14,34)   =    178.388861    -0.000000     0.000242   178.389103
	  267 D(13,4,1,56)    =   -179.254964    -0.000000     0.019746  -179.235218
	  268 D(13,4,17,18)   =   -179.483400     0.000000     0.024227  -179.459173
	  269 D(13,22,3,20)   =    142.920774     0.000000     0.015498   142.936272
	  270 D(13,22,23,39)  =   -168.251127    -0.000000    -0.016746  -168.267873
	  271 D(14,2,6,29)    =     -0.739425     0.000000    -0.001989    -0.741414
	  272 D(14,2,13,22)   =    126.471940     0.000000    -0.008484   126.463456
	  273 D(14,27,60,52)  =      0.067136    -0.000000    -0.000069     0.067066
	  274 D(14,27,60,61)  =   -179.948278    -0.000000     0.000049  -179.948229
	  275 D(14,34,50,51)  =    179.978201     0.000000     0.001080   179.979281
	  276 D(14,34,50,52)  =     -0.087227    -0.000000    -0.002224    -0.089451
	  277 D(14,34,54,29)  =     -0.150292     0.000000     0.001846    -0.148446
	  278 D(14,34,54,55)  =    179.939199    -0.000000     0.000548   179.939747
	  279 D(15,19,33,48)  =      6.198385    -0.000000    -0.004949     6.193436
	  280 D(15,25,46,47)  =   -178.788568     0.000000     0.004087  -178.784482
	  281 D(16,15,19,24)  =    179.913395     0.000000     0.000516   179.913911
	  282 D(16,15,19,33)  =     -4.134447    -0.000000    -0.007191    -4.141638
	  283 D(16,15,25,26)  =     -1.246046    -0.000000    -0.002390    -1.248436
	  284 D(16,15,25,46)  =    177.507920    -0.000000    -0.004844   177.503076
	  285 D(17,4,1,56)    =     -1.365757     0.000000     0.066923    -1.298835
	  286 D(17,4,13,22)   =     -1.963209    -0.000000    -0.013489    -1.976698
	  287 D(17,11,23,22)  =     -3.677489     0.000000    -0.001358    -3.678847
	  288 D(17,11,23,39)  =    169.692927     0.000000     0.013086   169.706014
	  289 D(18,17,11,23)  =   -177.685554    -0.000000    -0.015957  -177.701511
	  290 D(19,15,25,26)  =    179.945856     0.000000     0.002600   179.948456
	  291 D(19,15,25,46)  =     -1.300178    -0.000000     0.000146    -1.300032
	  292 D(19,24,9,46)   =     -3.687407    -0.000000    -0.013295    -3.700702
	  293 D(19,33,8,42)   =   -177.778347    -0.000000    -0.012072  -177.790420
	  294 D(19,33,48,44)  =    179.322741     0.000000     0.009157   179.331898
	  295 D(19,33,48,49)  =     -0.210413     0.000000     0.003402    -0.207011
	  296 D(20,3,5,24)    =    152.831083    -0.000000    -0.023414   152.807668
	  297 D(20,3,22,23)   =    -26.608301     0.000000     0.014366   -26.593935
	  298 D(20,39,23,22)  =     21.834052     0.000000     0.010690    21.844742
	  299 D(21,20,3,22)   =    154.920854    -0.000000    -0.010451   154.910402
	  300 D(21,20,35,36)  =    -54.655724     0.000000     0.069875   -54.585850
	  301 D(21,20,35,37)  =   -174.285203     0.000000     0.068246  -174.216956
	  302 D(21,20,35,38)  =     65.403347    -0.000000     0.065693    65.469040
	  303 D(21,20,39,23)  =   -152.935416    -0.000000     0.000006  -152.935411
	  304 D(21,20,39,40)  =    -34.313518    -0.000000    -0.002723   -34.316241
	  305 D(21,20,39,41)  =     86.023931     0.000000    -0.001601    86.022330
	  306 D(22,3,5,24)    =    -13.854012     0.000000     0.010326   -13.843686
	  307 D(22,3,20,35)   =    -80.619356    -0.000000    -0.012739   -80.632095
	  308 D(22,3,20,39)   =     38.713280    -0.000000    -0.007737    38.705543
	  309 D(22,23,39,40)  =    -95.507368     0.000000     0.015645   -95.491723
	  310 D(22,23,39,41)  =    142.963763     0.000000     0.014977   142.978740
	  311 D(23,39,20,35)  =     85.254625    -0.000000     0.001113    85.255738
	  312 D(24,5,8,33)    =      2.127646     0.000000     0.019118     2.146764
	  313 D(24,5,8,42)    =    176.201846     0.000000     0.025914   176.227759
	  314 D(24,9,46,25)   =      1.176975     0.000000     0.009191     1.186166
	  315 D(24,9,46,47)   =   -178.668758     0.000000     0.002621  -178.666137
	  316 D(24,19,15,25)  =     -1.285522    -0.000000    -0.004524    -1.290046
	  317 D(24,19,33,48)  =   -177.444978    -0.000000    -0.011916  -177.456894
	  318 D(25,15,19,33)  =    174.666636    -0.000000    -0.012231   174.654405
	  319 D(26,25,46,47)  =     -0.033436     0.000000     0.001596    -0.031840
	  320 D(27,14,34,50)  =      0.332250     0.000000     0.003538     0.335788
	  321 D(27,14,34,54)  =   -179.734178     0.000000     0.008882  -179.725296
	  322 D(27,60,52,50)  =      0.190760     0.000000     0.001501     0.192262
	  323 D(27,60,52,53)  =   -179.955211    -0.000000    -0.001663  -179.956874
	  324 D(28,27,14,34)  =    179.632110    -0.000000    -0.003817   179.628293
	  325 D(28,27,60,52)  =   -179.890551     0.000000     0.001303  -179.889247
	  326 D(28,27,60,61)  =      0.094035     0.000000     0.001422     0.095457
	  327 D(29,54,34,50)  =    179.782620     0.000000     0.007242   179.789862
	  328 D(30,29,54,34)  =   -179.760891    -0.000000     0.000361  -179.760530
	  329 D(30,29,54,55)  =      0.148017     0.000000     0.001684     0.149701
	  330 D(31,42,8,33)   =     -2.356835     0.000000     0.005171    -2.351664
	  331 D(31,44,48,33)  =     -0.801242     0.000000     0.001122    -0.800120
	  332 D(31,44,48,49)  =    178.733990     0.000000     0.006859   178.740849
	  333 D(32,31,42,43)  =      1.287686    -0.000000    -0.004005     1.283682
	  334 D(32,31,44,45)  =      0.234656     0.000000     0.002133     0.236789
	  335 D(32,31,44,48)  =   -179.026853    -0.000000    -0.005957  -179.032810
	  336 D(33,8,42,43)   =    176.975366     0.000000     0.012229   176.987595
	  337 D(33,48,44,45)  =    179.937824    -0.000000    -0.006995   179.930829
	  338 D(34,14,27,60)  =     -0.325649    -0.000000    -0.002446    -0.328095
	  339 D(34,50,52,53)  =    179.968350     0.000000     0.002846   179.971196
	  340 D(34,50,52,60)  =     -0.178621    -0.000000    -0.000339    -0.178961
	  341 D(35,20,39,40)  =   -156.123477    -0.000000    -0.001615  -156.125092
	  342 D(35,20,39,41)  =    -35.786028     0.000000    -0.000494   -35.786521
	  343 D(36,35,20,39)  =     67.335772     0.000000     0.067579    67.403351
	  344 D(37,35,20,39)  =    -52.293707     0.000000     0.065951   -52.227755
	  345 D(38,35,20,39)  =   -172.605157     0.000000     0.063397  -172.541760
	  346 D(42,8,33,48)   =      2.055468    -0.000000    -0.010959     2.044509
	  347 D(42,31,44,45)  =    179.733893     0.000000     0.001300   179.735193
	  348 D(42,31,44,48)  =      0.472384    -0.000000    -0.006790     0.465593
	  349 D(43,42,31,44)  =   -178.213928    -0.000000    -0.003181  -178.217108
	  350 D(45,44,48,49)  =     -0.526944    -0.000000    -0.001258    -0.528202
	  351 D(50,34,54,55)  =     -0.127889     0.000000     0.005944    -0.121945
	  352 D(50,52,60,61)  =   -179.793878     0.000000     0.001383  -179.792495
	  353 D(51,50,34,54)  =      0.045131    -0.000000    -0.004302     0.040828
	  354 D(51,50,52,53)  =     -0.098349    -0.000000    -0.000522    -0.098871
	  355 D(51,50,52,60)  =    179.754679    -0.000000    -0.003707   179.750972
	  356 D(52,50,34,54)  =    179.979703    -0.000000    -0.007607   179.972097
	  357 D(53,52,60,61)  =      0.060151    -0.000000    -0.001781     0.058369
	  358 R(1,14)         =      2.987207     0.000200    -0.000084     2.987123
	  359 R(1,27)         =      2.953440     0.000137    -0.000204     2.953236
	  360 R(2,5)          =      3.533588    -0.000030     0.000092     3.533679
	  361 R(2,9)          =      3.366750    -0.000021    -0.000169     3.366582
	  362 R(2,24)         =      3.538303     0.000106    -0.000027     3.538276
	  363 R(3,6)          =      3.338434    -0.000007     0.000219     3.338653
	  364 R(4,27)         =      3.286435    -0.000316    -0.000174     3.286261
	  365 R(5,6)          =      3.559997     0.000088     0.000200     3.560197
	  366 R(6,24)         =      3.865900     0.000079    -0.000019     3.865881
	  367 R(9,13)         =      3.463023    -0.000058    -0.000050     3.462973
	  368 R(9,14)         =      3.363028    -0.000030    -0.000215     3.362813
	  369 R(9,22)         =      3.366609     0.000033    -0.000103     3.366506
	  370 R(9,27)         =      3.395591    -0.000045    -0.000359     3.395232
	  371 R(13,24)        =      3.704532    -0.000141    -0.000012     3.704520
	  372 R(14,46)        =      3.941772    -0.000042    -0.000591     3.941181
	  373 R(20,42)        =      3.207574    -0.000025     0.000063     3.207637
	  374 R(27,46)        =      3.710299     0.000021    -0.000620     3.709678
	  375 R(35,42)        =      3.650386     0.000159     0.000347     3.650733
	  376 R(46,60)        =      4.039080    -0.000013    -0.000875     4.038205
	 ---------------------------------------------------------------------------
	Successfully symmetrized geometry.

  ==> Convergence Check <==

  Measures of convergence in internal coordinates in au.
  Criteria marked as inactive (o), active & met (*), and active & unmet ( ).
  ---------------------------------------------------------------------------------------------
   Step     Total Energy     Delta E     MAX Force     RMS Force      MAX Disp      RMS Disp   
  ---------------------------------------------------------------------------------------------
    Convergence Criteria    1.00e-06 *    3.00e-04 *             o    1.20e-03 *             o
  ---------------------------------------------------------------------------------------------
     14   -1377.57121625   -7.96e-07 *    1.86e-04 *    1.95e-05 o    1.65e-03      2.75e-04 o  ~
  ---------------------------------------------------------------------------------------------


  **** Optimization is complete! (in 14 steps) ****

  ==> Optimization Summary <==

  Measures of convergence in internal coordinates in au.
  --------------------------------------------------------------------------------------------------------------- ~
   Step         Total Energy             Delta E       MAX Force       RMS Force        MAX Disp        RMS Disp  ~
  --------------------------------------------------------------------------------------------------------------- ~
      1   -1377.247700017122  -1377.247700017122      0.13816440      0.03253951      0.10785199      0.02578544  ~
      2   -1377.476456680358     -0.228756663235      0.06405205      0.01550113      0.07930219      0.02089237  ~
      3   -1377.554980774211     -0.078524093853      0.02259539      0.00536681      0.05443404      0.01541916  ~
      4   -1377.568078564482     -0.013097790271      0.00674464      0.00155576      0.10572859      0.02175424  ~
      5   -1377.570207903252     -0.002129338771      0.00141207      0.00032562      0.10669289      0.01526217  ~
      6   -1377.570492269062     -0.000284365810      0.00130560      0.00025984      0.20295942      0.02266457  ~
      7   -1377.570455244956      0.000037024107      0.00364883      0.00053851      0.08024845      0.01072370  ~
      8   -1377.570914449288     -0.000459204332      0.00413057      0.00044053      0.04979433      0.00609674  ~
      9   -1377.571087542327     -0.000173093040      0.00166563      0.00017504      0.08596275      0.01087541  ~
     10   -1377.571160554128     -0.000073011801      0.00093196      0.00011047      0.05354033      0.01022753  ~
     11   -1377.571185973549     -0.000025419421      0.00087503      0.00011749      0.01577614      0.00322343  ~
     12   -1377.571207881318     -0.000021907769      0.00038829      0.00004252      0.02100850      0.00347942  ~
     13   -1377.571215448651     -0.000007567333      0.00031424      0.00003629      0.00460006      0.00075853  ~
     14   -1377.571216245000     -0.000000796349      0.00018566      0.00001948      0.00165352      0.00027453  ~
  --------------------------------------------------------------------------------------------------------------- ~

	Writing optimization data to binary file.
	Final energy is  -1377.5712162450002
	Final (previous) structure:
	Cartesian Geometry (in Angstrom)
	    O    -1.3679028035   2.3838505687   2.9888380355
	    C    -1.0732261576   0.2125224860   1.3637617892
	    C    -0.2073582556   1.0126612393  -1.6420749216
	    C    -0.9306422406   2.6899193337   1.7497392843
	    C     0.4216026011  -0.1589330068  -1.8164505483
	    C    -2.0689736391  -0.4521650475   0.7103311174
	    H    -2.5550253746   0.0164337174  -0.1252913396
	    C     0.3307954122  -1.0511777170  -3.0169859311
	    C     2.0369135722  -0.3957826829   0.2270988110
	    H     1.7731651130   0.5383175197   0.6779662409
	    C    -0.4238027432   4.2575342168   0.0013735964
	    H    -0.3470055523   5.2765930897  -0.3362382849
	    C    -0.7195765034   1.5936983147   0.8875980789
	    C    -0.4473405736  -0.4145319082   2.4938339498
	    C     2.8409778779  -2.7918192812  -0.9646699806
	    H     3.1710511284  -3.6994491850  -1.4385784955
	    C    -0.7414707572   3.9944411471   1.3270046861
	    H    -0.8994643582   4.8133886584   2.0007781446
	    C     1.8510216450  -2.0129351494  -1.5351609990
	    C    -0.7116410359   1.8873143524  -2.7922009474
	    H    -0.2750967072   1.5748942814  -3.7292532325
	    C    -0.3503965548   1.8854196477  -0.4293478646
	    C    -0.2685321362   3.2127673893  -0.8720877503
	    C     1.4118442038  -0.8318581502  -0.9282428369
	    C     3.4221812319  -2.3705888193   0.2201743901
	    H     4.1934552825  -2.9627209142   0.6805607088
	    C     0.5970123018   0.1938312138   3.2452232673
	    H     0.9427559650   1.1698077241   2.9653476275
	    C    -2.4898563047  -1.7416799706   1.1030163955
	    H    -3.2768881635  -2.2285384446   0.5550180090
	    C    -0.3917732052  -2.0315979748  -5.0866208441
	    H    -1.0033820053  -1.9838552167  -5.9704525895
	    C     1.1545068057  -2.1666652103  -2.8173841739
	    C    -0.8726182242  -1.7014907052   2.8839017900
	    C    -2.2395003310   1.9370944371  -2.9249907417
	    H    -2.5248946848   2.5685801085  -3.7617477138
	    H    -2.6982748673   2.3434899230  -2.0298538544
	    H    -2.6580886808   0.9504717637  -3.0915945407
	    C    -0.1373632389   3.2617313658  -2.3731050719
	    H     0.9021245240   3.3387304554  -2.6834159151
	    H    -0.6781142300   4.0939619415  -2.8123277810
	    C    -0.4641995269  -1.0059503638  -4.1546705944
	    H    -1.1476574256  -0.2022294741  -4.3355462193
	    C     0.4474384015  -3.1164968834  -4.8882982894
	    H     0.4880804549  -3.9049952707  -5.6189849004
	    C     3.0305835767  -1.1742149496   0.8013539668
	    H     3.4993446309  -0.8434268779   1.7105527263
	    C     1.2218333149  -3.1924208845  -3.7423270166
	    H     1.8594583405  -4.0423001198  -3.5743120345
	    C    -0.2601875336  -2.3352748035   3.9997091096
	    H    -0.5987392064  -3.3172036649   4.2821025589
	    C     0.7289167331  -1.7232866978   4.6956873624
	    H     1.1858795053  -2.2106378320   5.5388623070
	    C    -1.9065295453  -2.3516633624   2.1627568879
	    H    -2.2191672286  -3.3338642847   2.4721861028
	    C    -1.6264233083   3.3896528587   3.9240777106
	    H    -2.4099335008   4.0594485185   3.5831430950
	    H    -0.7343776809   3.9668575597   4.1486871553
	    H    -1.9556968754   2.8854205243   4.8204230746
	    C     1.1642164860  -0.4343467152   4.3061274992
	    H     1.9518566774   0.0490766127   4.8574494457
	Saving final (previous) structure.
			--------------------------
			 OPTKING Finished Execution 
			--------------------------

    Final optimized geometry and variables:
    Molecular point group: c1
    Full point group: C1

    Geometry (in Angstrom), charge = 0, multiplicity = 1:

    O           -1.367902803504     2.383850568663     2.988838035548
    C           -1.073226157616     0.212522486032     1.363761789173
    C           -0.207358255594     1.012661239257    -1.642074921576
    C           -0.930642240591     2.689919333681     1.749739284335
    C            0.421602601148    -0.158933006819    -1.816450548278
    C           -2.068973639135    -0.452165047537     0.710331117364
    H           -2.555025374621     0.016433717354    -0.125291339625
    C            0.330795412189    -1.051177716956    -3.016985931141
    C            2.036913572150    -0.395782682870     0.227098810982
    H            1.773165112999     0.538317519667     0.677966240944
    C           -0.423802743185     4.257534216824     0.001373596449
    H           -0.347005552318     5.276593089652    -0.336238284861
    C           -0.719576503383     1.593698314653     0.887598078928
    C           -0.447340573612    -0.414531908166     2.493833949757
    C            2.840977877882    -2.791819281196    -0.964669980552
    H            3.171051128387    -3.699449185012    -1.438578495484
    C           -0.741470757212     3.994441147124     1.327004686062
    H           -0.899464358157     4.813388658380     2.000778144640
    C            1.851021644986    -2.012935149450    -1.535160999028
    C           -0.711641035872     1.887314352387    -2.792200947362
    H           -0.275096707249     1.574894281381    -3.729253232549
    C           -0.350396554798     1.885419647680    -0.429347864600
    C           -0.268532136245     3.212767389315    -0.872087750309
    C            1.411844203845    -0.831858150227    -0.928242836884
    C            3.422181231884    -2.370588819251     0.220174390063
    H            4.193455282501    -2.962720914165     0.680560708752
    C            0.597012301805     0.193831213782     3.245223267338
    H            0.942755965043     1.169807724099     2.965347627459
    C           -2.489856304658    -1.741679970569     1.103016395538
    H           -3.276888163452    -2.228538444623     0.555018009025
    C           -0.391773205156    -2.031597974766    -5.086620844124
    H           -1.003382005348    -1.983855216693    -5.970452589474
    C            1.154506805673    -2.166665210272    -2.817384173910
    C           -0.872618224221    -1.701490705197     2.883901790029
    C           -2.239500331029     1.937094437074    -2.924990741705
    H           -2.524894684763     2.568580108499    -3.761747713841
    H           -2.698274867305     2.343489922954    -2.029853854425
    H           -2.658088680813     0.950471763657    -3.091594540679
    C           -0.137363238888     3.261731365820    -2.373105071853
    H            0.902124524000     3.338730455351    -2.683415915065
    H           -0.678114230022     4.093961941516    -2.812327780952
    C           -0.464199526857    -1.005950363790    -4.154670594368
    H           -1.147657425626    -0.202229474096    -4.335546219288
    C            0.447438401485    -3.116496883392    -4.888298289357
    H            0.488080454933    -3.904995270694    -5.618984900354
    C            3.030583576662    -1.174214949650     0.801353966761
    H            3.499344630858    -0.843426877878     1.710552726307
    C            1.221833314871    -3.192420884480    -3.742327016572
    H            1.859458340531    -4.042300119849    -3.574312034476
    C           -0.260187533621    -2.335274803535     3.999709109556
    H           -0.598739206366    -3.317203664858     4.282102558888
    C            0.728916733110    -1.723286697848     4.695687362381
    H            1.185879505302    -2.210637832020     5.538862306978
    C           -1.906529545316    -2.351663362444     2.162756887906
    H           -2.219167228600    -3.333864284666     2.472186102825
    C           -1.626423308280     3.389652858724     3.924077710589
    H           -2.409933500850     4.059448518487     3.583143095010
    H           -0.734377680906     3.966857559701     4.148687155299
    H           -1.955696875446     2.885420524302     4.820423074564
    C            1.164216485992    -0.434346715241     4.306127499244
    H            1.951856677383     0.049076612735     4.857449445738

	Cleaning optimization helper files.

*** Psi4 exiting successfully. Buy a developer a beer!
