
    -----------------------------------------------------------------------
          Psi4: An Open-Source Ab Initio Electronic Structure Package
                               Psi4 1.1 release

                         Git: Rev {HEAD} add49b9 


    R. M. Parrish, L. A. Burns, D. G. A. Smith, A. C. Simmonett,
    A. E. DePrince III, E. G. Hohenstein, U. Bozkaya, A. Yu. Sokolov,
    R. Di Remigio, R. M. Richard, J. F. Gonthier, A. M. James,
    H. R. McAlexander, A. Kumar, M. Saitow, X. Wang, B. P. Pritchard,
    P. Verma, H. F. Schaefer III, K. Patkowski, R. A. King, E. F. Valeev,
    F. A. Evangelista, J. M. Turney, T. D. Crawford, and C. D. Sherrill,
    J. Chem. Theory Comput. in press (2017).
    (doi: 10.1021/acs.jctc.7b00174)

    -----------------------------------------------------------------------


    Psi4 started on: Thursday, 16 November 2017 05:57PM

    Process ID:   1890
    PSIDATADIR: /home/dslochower/data/applications/psi4conda/share/psi4
    Memory:     500.0 MiB
    Threads:    1
    
  ==> Input File <==

--------------------------------------------------------------------------
# Any line starting with the # character is a comment line
#! Sample HF/cc-pVDZ Feringa computation

memory 2000 mb

molecule {
  O          -0.0905    5.5166   12.3212
  C           0.2148    3.5148   10.5539
  C           1.2528    4.5034    7.6327
  C           0.4429    5.9274   11.1286
  C           1.7540    3.2686    7.3766
  C          -0.8252    2.9396    9.8619
  H          -1.2025    3.3992    9.1219
  C           1.7183    2.5437    6.0696
  C           3.0507    2.6072    9.5438
  H           2.9013    3.4342    9.9869
  C           1.0732    7.6244    9.5385
  H           1.2275    8.5364    9.3209
  C           0.6509    4.8945   10.1848
  C           0.7880    2.8150   11.6680
  C           3.5773    0.1811    8.2153
  H           3.7557   -0.6352    7.7635
  C           0.7031    7.2626   10.8309
  H           0.6286    7.9245   11.5072
  C           2.8346    1.1819    7.6040
  C           0.8725    5.4878    6.5329
  H           1.3338    5.2571    5.6753
  C           1.0804    5.2753    8.8983
  C           1.2127    6.6449    8.5780
  C           2.5109    2.3759    8.2838
  C           4.0543    0.3990    9.5019
  H           4.5471   -0.2825    9.9444
  C           1.8496    3.3486   12.4438
  H           2.1861    4.2127   12.2395
  C          -1.3425    1.6789   10.2326
  H          -2.0752    1.3104    9.7534
  C           1.2485    1.9192    3.7870
  H           0.8622    2.1258    2.9451
  C           2.3548    1.2902    6.2299
  C           0.2861    1.5272   12.0084
  C          -0.6476    5.5052    6.3445
  H          -0.8920    6.2245    5.7258
  H          -1.0820    5.6575    7.2089
  H          -0.9413    4.6452    5.9778
  C           1.4014    6.8266    7.0972
  H           2.3554    6.9610    6.8693
  H           0.8740    7.5933    6.7579
  C           1.1295    2.8321    4.8348
  H           0.6522    3.6437    4.7095
  C           1.9218    0.7111    3.9510
  H           2.0076    0.1130    3.2184
  C           3.8137    1.6101   10.1487
  H           4.1751    1.7585   11.0137
  C           2.4674    0.3804    5.1847
  H           2.9087   -0.4511    5.3118
  C           0.8829    0.8211   13.0952
  H           0.5519   -0.0380   13.3300
  C           1.9174    1.3550   13.8002
  H           2.3150    0.8603   14.5081
  C          -0.7959    0.9854   11.2759
  H          -1.1452    0.1335   11.5099
  C          -0.4216    6.5116   13.2838
  H          -1.0388    7.1598   12.8843
  H           0.3939    6.9717   13.5715
  H          -0.8480    6.0881   14.0570
  C           2.3993    2.6430   13.4812
  H           3.1079    3.0221   13.9880
}

set basis cc-pVDZ
energy('scf')
--------------------------------------------------------------------------

  Memory set to   1.863 GiB by Python driver.

*** tstart() called on warthog
*** at Thu Nov 16 17:57:37 2017

   => Loading Basis Set <=

    Name: CC-PVDZ
    Role: ORBITAL
    Keyword: BASIS
    atoms 1                                                                                                entry O          line   190 file /home/dslochower/data/applications/psi4conda/share/psi4/basis/cc-pvdz.gbs 
    atoms 2-6, 8-9, 11, 13-15, 17, 19-20, 22-25, 27, 29, 31, 33-35, 39, 42, 44, 46, 48, 50, 52, 54, 56, 60 entry C          line   130 file /home/dslochower/data/applications/psi4conda/share/psi4/basis/cc-pvdz.gbs 
    atoms 7, 10, 12, 16, 18, 21, 26, 28, 30, 32, 36-38, 40-41, 43, 45, 47, 49, 51, 53, 55, 57-59, 61       entry H          line    20 file /home/dslochower/data/applications/psi4conda/share/psi4/basis/cc-pvdz.gbs 

    There are an even number of electrons - assuming singlet.
    Specify the multiplicity in the molecule input block.


         ---------------------------------------------------------
                                   SCF
            by Justin Turney, Rob Parrish, and Andy Simmonett
                              RHF Reference
                        1 Threads,   1907 MiB Core
         ---------------------------------------------------------

  ==> Geometry <==

    Molecular point group: c1
    Full point group: C1

    Geometry (in Angstrom), charge = 0, multiplicity = 1:

       Center              X                  Y                   Z               Mass       
    ------------   -----------------  -----------------  -----------------  -----------------
           O         -1.359938439009     2.190676951276     3.106873470861    15.994914619560
           C         -1.054638439009     0.188876951276     1.339573470861    12.000000000000
           C         -0.016638439009     1.177476951276    -1.581626529139    12.000000000000
           C         -0.826538439009     2.601476951276     1.914273470861    12.000000000000
           C          0.484561560991    -0.057323048724    -1.837726529139    12.000000000000
           C         -2.094638439009    -0.386323048724     0.647573470861    12.000000000000
           H         -2.471938439009     0.073276951276    -0.092426529139     1.007825032070
           C          0.448861560991    -0.782223048724    -3.144726529139    12.000000000000
           C          1.781261560991    -0.718723048724     0.329473470861    12.000000000000
           H          1.631861560991     0.108276951276     0.772573470861     1.007825032070
           C         -0.196238439009     4.298476951276     0.324173470861    12.000000000000
           H         -0.041938439009     5.210476951276     0.106573470861     1.007825032070
           C         -0.618538439009     1.568576951276     0.970473470861    12.000000000000
           C         -0.481438439009    -0.510923048724     2.453673470861    12.000000000000
           C          2.307861560991    -3.144823048724    -0.999026529139    12.000000000000
           H          2.486261560991    -3.961123048724    -1.450826529139     1.007825032070
           C         -0.566338439009     3.936676951276     1.616573470861    12.000000000000
           H         -0.640838439009     4.598576951276     2.292873470861     1.007825032070
           C          1.565161560991    -2.144023048724    -1.610326529139    12.000000000000
           C         -0.396938439009     2.161876951276    -2.681426529139    12.000000000000
           H          0.064361560991     1.931176951276    -3.539026529139     1.007825032070
           C         -0.189038439009     1.949376951276    -0.316026529139    12.000000000000
           C         -0.056738439009     3.318976951276    -0.636326529139    12.000000000000
           C          1.241461560991    -0.950023048724    -0.930526529139    12.000000000000
           C          2.784861560991    -2.926923048724     0.287573470861    12.000000000000
           H          3.277661560991    -3.608423048724     0.730073470861     1.007825032070
           C          0.580161560991     0.022676951276     3.229473470861    12.000000000000
           H          0.916661560991     0.886776951276     3.025173470861     1.007825032070
           C         -2.611938439009    -1.647023048724     1.018273470861    12.000000000000
           H         -3.344638439009    -2.015523048724     0.539073470861     1.007825032070
           C         -0.020938439009    -1.406723048724    -5.427326529139    12.000000000000
           H         -0.407238439009    -1.200123048724    -6.269226529139     1.007825032070
           C          1.085361560991    -2.035723048724    -2.984426529139    12.000000000000
           C         -0.983338439009    -1.798723048724     2.794073470861    12.000000000000
           C         -1.917038439009     2.179276951276    -2.869826529139    12.000000000000
           H         -2.161438439009     2.898576951276    -3.488526529139     1.007825032070
           H         -2.351438439009     2.331576951276    -2.005426529139     1.007825032070
           H         -2.210738439009     1.319276951276    -3.236526529139     1.007825032070
           C          0.131961560991     3.500676951276    -2.117126529139    12.000000000000
           H          1.085961560991     3.635076951276    -2.345026529139     1.007825032070
           H         -0.395438439009     4.267376951276    -2.456426529139     1.007825032070
           C         -0.139938439009    -0.493823048724    -4.379526529139    12.000000000000
           H         -0.617238439009     0.317776951276    -4.504826529139     1.007825032070
           C          0.652361560991    -2.614823048724    -5.263326529139    12.000000000000
           H          0.738161560991    -3.212923048724    -5.995926529139     1.007825032070
           C          2.544261560991    -1.715823048724     0.934373470861    12.000000000000
           H          2.905661560991    -1.567423048724     1.799373470861     1.007825032070
           C          1.197961560991    -2.945523048724    -4.029626529139    12.000000000000
           H          1.639261560991    -3.777023048724    -3.902526529139     1.007825032070
           C         -0.386538439009    -2.504823048724     3.880873470861    12.000000000000
           H         -0.717538439009    -3.363923048724     4.115673470861     1.007825032070
           C          0.647961560991    -1.970923048724     4.585873470861    12.000000000000
           H          1.045561560991    -2.465623048724     5.293773470861     1.007825032070
           C         -2.065338439009    -2.340523048724     2.061573470861    12.000000000000
           H         -2.414638439009    -3.192423048724     2.295573470861     1.007825032070
           C         -1.691038439009     3.185676951276     4.069473470861    12.000000000000
           H         -2.308238439009     3.833876951276     3.669973470861     1.007825032070
           H         -0.875538439009     3.645776951276     4.357173470861     1.007825032070
           H         -2.117438439009     2.762176951276     4.842673470861     1.007825032070
           C          1.129861560991    -0.682923048724     4.266873470861    12.000000000000
           H          1.838461560991    -0.303823048724     4.773673470861     1.007825032070

  Running in c1 symmetry.

  Rotational constants: A =      0.00579  B =      0.00394  C =      0.00281 [cm^-1]
  Rotational constants: A =    173.58532  B =    118.06999  C =     84.35571 [MHz]
  Nuclear repulsion = 3612.903371584816341

  Charge       = 0
  Multiplicity = 1
  Electrons    = 238
  Nalpha       = 119
  Nbeta        = 119

  ==> Algorithm <==

  SCF Algorithm Type is DF.
  DIIS enabled.
  MOM disabled.
  Fractional occupation disabled.
  Guess Type is SAD.
  Energy threshold   = 1.00e-06
  Density threshold  = 1.00e-06
  Integral threshold = 0.00e+00

  ==> Primary Basis <==

  Basis Set: CC-PVDZ
    Blend: CC-PVDZ
    Number of shells: 288
    Number of basis function: 620
    Number of Cartesian functions: 655
    Spherical Harmonics?: true
    Max angular momentum: 2

   => Loading Basis Set <=

    Name: (CC-PVDZ AUX)
    Role: JKFIT
    Keyword: DF_BASIS_SCF
    atoms 1                                                                                                entry O          line   220 file /home/dslochower/data/applications/psi4conda/share/psi4/basis/cc-pvdz-jkfit.gbs 
    atoms 2-6, 8-9, 11, 13-15, 17, 19-20, 22-25, 27, 29, 31, 33-35, 39, 42, 44, 46, 48, 50, 52, 54, 56, 60 entry C          line   120 file /home/dslochower/data/applications/psi4conda/share/psi4/basis/cc-pvdz-jkfit.gbs 
    atoms 7, 10, 12, 16, 18, 21, 26, 28, 30, 32, 36-38, 40-41, 43, 45, 47, 49, 51, 53, 55, 57-59, 61       entry H          line    50 file /home/dslochower/data/applications/psi4conda/share/psi4/basis/cc-pvdz-jkfit.gbs 

  ==> Pre-Iterations <==

   -------------------------------------------------------
    Irrep   Nso     Nmo     Nalpha   Nbeta   Ndocc  Nsocc
   -------------------------------------------------------
     A        620     620       0       0       0       0
   -------------------------------------------------------
    Total     620     620     119     119     119       0
   -------------------------------------------------------

  ==> Integral Setup <==

  ==> DFJK: Density-Fitted J/K Matrices <==

    J tasked:                  Yes
    K tasked:                  Yes
    wK tasked:                  No
    OpenMP threads:              1
    Integrals threads:           1
    Memory (MB):              1430
    Algorithm:                Disk
    Integral Cache:           NONE
    Schwarz Cutoff:          1E-12
    Fitting Condition:       1E-12

   => Auxiliary Basis Set <=

  Basis Set: (CC-PVDZ AUX)
    Blend: CC-PVDZ-JKFIT
    Number of shells: 1074
    Number of basis function: 3048
    Number of Cartesian functions: 3485
    Spherical Harmonics?: true
    Max angular momentum: 3

  Minimum eigenvalue in the overlap matrix is 1.2172788122E-04.
  Using Symmetric Orthogonalization.

  SCF Guess: Superposition of Atomic Densities via on-the-fly atomic UHF.

  ==> Iterations <==

                           Total Energy        Delta E     RMS |[F,P]|

   @DF-RHF iter   0: -1404.49218617275324   -1.40449e+03   2.00053e-02 
   @DF-RHF iter   1: -1376.34060170291013    2.81516e+01   1.61730e-03 
   @DF-RHF iter   2: -1377.08272868633935   -7.42127e-01   7.53546e-04 DIIS
   @DF-RHF iter   3: -1377.21353996956259   -1.30811e-01   3.79147e-04 DIIS
   @DF-RHF iter   4: -1377.25776372250630   -4.42238e-02   1.42740e-04 DIIS
   @DF-RHF iter   5: -1377.26428012095153   -6.51640e-03   5.01472e-05 DIIS
   @DF-RHF iter   6: -1377.26541090405181   -1.13078e-03   1.64303e-05 DIIS
   @DF-RHF iter   7: -1377.26553805265712   -1.27149e-04   6.13098e-06 DIIS
   @DF-RHF iter   8: -1377.26555395108699   -1.58984e-05   2.42279e-06 DIIS
   @DF-RHF iter   9: -1377.26555779134878   -3.84026e-06   1.29746e-06 DIIS
   @DF-RHF iter  10: -1377.26555933896839   -1.54762e-06   6.68266e-07 DIIS
   @DF-RHF iter  11: -1377.26555987364736   -5.34679e-07   2.89281e-07 DIIS

  ==> Post-Iterations <==

    Orbital Energies (a.u.)
    -----------------------

    Doubly Occupied:                                                      

       1A    -20.575316     2A    -11.300465     3A    -11.254449  
       4A    -11.249999     5A    -11.249010     6A    -11.247206  
       7A    -11.240652     8A    -11.236710     9A    -11.233582  
      10A    -11.231248    11A    -11.230310    12A    -11.229162  
      13A    -11.228026    14A    -11.226238    15A    -11.223716  
      16A    -11.223408    17A    -11.223354    18A    -11.221789  
      19A    -11.218862    20A    -11.215206    21A    -11.213920  
      22A    -11.213024    23A    -11.212174    24A    -11.211778  
      25A    -11.211339    26A    -11.211280    27A    -11.210141  
      28A    -11.209809    29A    -11.209564    30A    -11.208602  
      31A    -11.208050    32A    -11.207369    33A    -11.206692  
      34A    -11.202923    35A    -11.184332    36A     -1.403797  
      37A     -1.193871    38A     -1.178871    39A     -1.167289  
      40A     -1.132832    41A     -1.120614    42A     -1.108286  
      43A     -1.080650    44A     -1.070494    45A     -1.042969  
      46A     -1.029773    47A     -1.028467    48A     -1.014764  
      49A     -1.008474    50A     -0.995168    51A     -0.990732  
      52A     -0.974743    53A     -0.968694    54A     -0.940858  
      55A     -0.902085    56A     -0.877487    57A     -0.863768  
      58A     -0.851207    59A     -0.845785    60A     -0.822207  
      61A     -0.818035    62A     -0.813052    63A     -0.798238  
      64A     -0.787670    65A     -0.757018    66A     -0.737611  
      67A     -0.728692    68A     -0.715462    69A     -0.701715  
      70A     -0.696690    71A     -0.694359    72A     -0.686185  
      73A     -0.671978    74A     -0.663958    75A     -0.654807  
      76A     -0.641473    77A     -0.640780    78A     -0.635813  
      79A     -0.629858    80A     -0.617191    81A     -0.614632  
      82A     -0.609744    83A     -0.604437    84A     -0.597958  
      85A     -0.589763    86A     -0.585609    87A     -0.580863  
      88A     -0.578533    89A     -0.575633    90A     -0.572747  
      91A     -0.545110    92A     -0.541208    93A     -0.535259  
      94A     -0.531795    95A     -0.522861    96A     -0.521803  
      97A     -0.513677    98A     -0.509403    99A     -0.504285  
     100A     -0.499645   101A     -0.495805   102A     -0.485225  
     103A     -0.481882   104A     -0.474544   105A     -0.470777  
     106A     -0.465887   107A     -0.459887   108A     -0.446197  
     109A     -0.435406   110A     -0.407272   111A     -0.373149  
     112A     -0.361553   113A     -0.342299   114A     -0.320356  
     115A     -0.308697   116A     -0.302303   117A     -0.274079  
     118A     -0.269202   119A     -0.260926  

    Virtual:                                                              

     120A      0.061067   121A      0.096415   122A      0.111532  
     123A      0.132228   124A      0.138417   125A      0.156503  
     126A      0.162778   127A      0.186571   128A      0.191312  
     129A      0.193064   130A      0.202293   131A      0.203407  
     132A      0.207899   133A      0.212658   134A      0.216332  
     135A      0.220580   136A      0.231228   137A      0.237664  
     138A      0.239593   139A      0.247092   140A      0.249491  
     141A      0.253505   142A      0.254830   143A      0.259857  
     144A      0.269842   145A      0.275184   146A      0.279526  
     147A      0.282131   148A      0.290872   149A      0.291854  
     150A      0.298609   151A      0.302558   152A      0.305534  
     153A      0.312622   154A      0.319387   155A      0.327545  
     156A      0.336132   157A      0.353697   158A      0.358647  
     159A      0.367132   160A      0.383213   161A      0.387759  
     162A      0.398825   163A      0.405363   164A      0.411367  
     165A      0.413450   166A      0.419698   167A      0.424065  
     168A      0.429712   169A      0.435869   170A      0.448529  
     171A      0.452857   172A      0.460051   173A      0.467591  
     174A      0.474418   175A      0.479508   176A      0.485644  
     177A      0.487644   178A      0.491442   179A      0.492290  
     180A      0.503746   181A      0.520138   182A      0.521424  
     183A      0.537501   184A      0.548669   185A      0.553476  
     186A      0.558320   187A      0.570224   188A      0.573449  
     189A      0.588058   190A      0.603568   191A      0.608127  
     192A      0.614230   193A      0.623078   194A      0.628421  
     195A      0.639754   196A      0.651842   197A      0.653713  
     198A      0.661002   199A      0.667654   200A      0.677847  
     201A      0.683021   202A      0.686273   203A      0.688406  
     204A      0.693326   205A      0.697464   206A      0.704691  
     207A      0.706260   208A      0.712990   209A      0.715732  
     210A      0.717484   211A      0.720650   212A      0.724607  
     213A      0.729706   214A      0.730847   215A      0.732224  
     216A      0.735020   217A      0.736372   218A      0.740319  
     219A      0.743541   220A      0.750028   221A      0.751696  
     222A      0.754906   223A      0.756419   224A      0.760698  
     225A      0.764868   226A      0.765001   227A      0.769855  
     228A      0.772307   229A      0.776469   230A      0.778821  
     231A      0.783508   232A      0.785590   233A      0.792148  
     234A      0.795167   235A      0.799292   236A      0.802537  
     237A      0.804058   238A      0.806980   239A      0.814719  
     240A      0.815993   241A      0.822786   242A      0.828495  
     243A      0.832185   244A      0.840010   245A      0.843775  
     246A      0.845989   247A      0.850739   248A      0.855421  
     249A      0.861037   250A      0.866400   251A      0.871011  
     252A      0.876924   253A      0.885040   254A      0.887587  
     255A      0.897789   256A      0.905761   257A      0.906834  
     258A      0.913892   259A      0.917736   260A      0.920158  
     261A      0.924360   262A      0.925764   263A      0.931343  
     264A      0.934954   265A      0.937933   266A      0.944060  
     267A      0.945206   268A      0.947737   269A      0.948631  
     270A      0.953344   271A      0.955118   272A      0.956799  
     273A      0.962435   274A      0.966630   275A      0.969941  
     276A      0.974737   277A      0.978460   278A      0.983850  
     279A      0.985868   280A      0.987617   281A      0.992470  
     282A      0.996117   283A      1.003764   284A      1.009715  
     285A      1.012926   286A      1.014794   287A      1.019751  
     288A      1.024729   289A      1.027170   290A      1.034045  
     291A      1.041977   292A      1.050331   293A      1.057990  
     294A      1.058713   295A      1.060388   296A      1.080359  
     297A      1.084817   298A      1.088790   299A      1.098344  
     300A      1.105788   301A      1.108248   302A      1.116810  
     303A      1.125490   304A      1.128909   305A      1.136644  
     306A      1.137416   307A      1.141419   308A      1.144064  
     309A      1.152128   310A      1.154647   311A      1.157528  
     312A      1.165223   313A      1.176567   314A      1.178238  
     315A      1.183693   316A      1.186378   317A      1.195752  
     318A      1.200770   319A      1.203420   320A      1.204837  
     321A      1.209685   322A      1.214886   323A      1.218959  
     324A      1.222719   325A      1.228033   326A      1.228529  
     327A      1.235296   328A      1.237143   329A      1.243717  
     330A      1.251414   331A      1.255479   332A      1.258511  
     333A      1.265356   334A      1.268774   335A      1.276390  
     336A      1.285865   337A      1.293692   338A      1.296785  
     339A      1.301147   340A      1.307398   341A      1.309655  
     342A      1.313578   343A      1.316471   344A      1.322105  
     345A      1.330541   346A      1.333336   347A      1.340287  
     348A      1.349010   349A      1.350066   350A      1.355626  
     351A      1.357821   352A      1.364694   353A      1.369448  
     354A      1.375024   355A      1.380488   356A      1.384245  
     357A      1.395544   358A      1.398100   359A      1.410736  
     360A      1.421260   361A      1.442621   362A      1.444858  
     363A      1.465278   364A      1.470805   365A      1.475855  
     366A      1.503759   367A      1.512111   368A      1.517393  
     369A      1.531781   370A      1.540174   371A      1.546309  
     372A      1.559936   373A      1.576070   374A      1.581883  
     375A      1.595015   376A      1.598861   377A      1.604867  
     378A      1.610364   379A      1.630241   380A      1.635701  
     381A      1.640971   382A      1.646885   383A      1.651026  
     384A      1.654330   385A      1.665760   386A      1.677511  
     387A      1.678599   388A      1.689865   389A      1.695036  
     390A      1.697869   391A      1.715789   392A      1.716797  
     393A      1.722435   394A      1.728067   395A      1.742785  
     396A      1.753090   397A      1.756349   398A      1.763179  
     399A      1.767857   400A      1.776421   401A      1.779986  
     402A      1.782952   403A      1.787475   404A      1.791243  
     405A      1.798747   406A      1.804289   407A      1.811420  
     408A      1.817017   409A      1.820581   410A      1.821386  
     411A      1.827526   412A      1.834115   413A      1.838298  
     414A      1.846253   415A      1.855013   416A      1.862140  
     417A      1.872037   418A      1.873789   419A      1.879675  
     420A      1.891507   421A      1.895080   422A      1.899414  
     423A      1.908811   424A      1.910093   425A      1.919113  
     426A      1.922552   427A      1.931260   428A      1.932871  
     429A      1.940731   430A      1.944433   431A      1.945916  
     432A      1.957165   433A      1.961619   434A      1.963547  
     435A      1.970512   436A      1.972970   437A      1.977465  
     438A      1.985484   439A      1.988103   440A      1.990805  
     441A      1.997457   442A      1.999318   443A      2.003230  
     444A      2.006761   445A      2.009589   446A      2.013546  
     447A      2.017309   448A      2.020522   449A      2.023556  
     450A      2.031806   451A      2.033084   452A      2.037512  
     453A      2.041317   454A      2.045156   455A      2.049509  
     456A      2.051863   457A      2.062720   458A      2.066661  
     459A      2.070035   460A      2.072154   461A      2.076321  
     462A      2.077603   463A      2.080995   464A      2.088947  
     465A      2.093109   466A      2.099265   467A      2.101807  
     468A      2.106787   469A      2.113470   470A      2.116881  
     471A      2.121728   472A      2.125788   473A      2.132745  
     474A      2.138546   475A      2.147426   476A      2.151524  
     477A      2.153708   478A      2.163080   479A      2.166027  
     480A      2.166570   481A      2.173247   482A      2.177546  
     483A      2.184101   484A      2.185820   485A      2.191934  
     486A      2.194797   487A      2.199051   488A      2.206560  
     489A      2.211601   490A      2.217061   491A      2.219050  
     492A      2.223495   493A      2.232284   494A      2.232555  
     495A      2.237735   496A      2.249797   497A      2.250951  
     498A      2.252999   499A      2.263130   500A      2.268840  
     501A      2.274932   502A      2.275797   503A      2.286636  
     504A      2.297071   505A      2.317522   506A      2.320526  
     507A      2.329131   508A      2.337051   509A      2.340467  
     510A      2.354756   511A      2.360439   512A      2.377787  
     513A      2.383291   514A      2.388596   515A      2.397629  
     516A      2.398195   517A      2.410047   518A      2.414469  
     519A      2.421238   520A      2.429618   521A      2.433457  
     522A      2.440885   523A      2.450827   524A      2.458487  
     525A      2.470005   526A      2.477046   527A      2.482364  
     528A      2.486061   529A      2.497485   530A      2.504807  
     531A      2.508654   532A      2.523915   533A      2.528297  
     534A      2.532995   535A      2.540549   536A      2.557810  
     537A      2.562961   538A      2.570356   539A      2.573611  
     540A      2.584119   541A      2.591882   542A      2.607469  
     543A      2.613625   544A      2.617511   545A      2.621447  
     546A      2.636465   547A      2.646461   548A      2.657287  
     549A      2.680036   550A      2.692358   551A      2.710352  
     552A      2.723664   553A      2.738885   554A      2.744307  
     555A      2.747739   556A      2.760041   557A      2.776077  
     558A      2.778126   559A      2.827312   560A      2.852981  
     561A      2.870423   562A      2.874089   563A      2.900531  
     564A      2.931145   565A      2.942821   566A      2.954381  
     567A      2.981163   568A      2.992654   569A      3.005111  
     570A      3.009397   571A      3.020314   572A      3.046553  
     573A      3.054458   574A      3.064948   575A      3.066767  
     576A      3.092066   577A      3.100795   578A      3.105799  
     579A      3.126457   580A      3.144518   581A      3.153768  
     582A      3.171203   583A      3.180352   584A      3.194849  
     585A      3.197822   586A      3.211706   587A      3.227738  
     588A      3.230392   589A      3.236731   590A      3.242455  
     591A      3.255423   592A      3.269516   593A      3.280582  
     594A      3.288744   595A      3.293546   596A      3.298126  
     597A      3.314776   598A      3.331184   599A      3.348086  
     600A      3.354108   601A      3.372733   602A      3.407823  
     603A      3.413894   604A      3.426581   605A      3.439497  
     606A      3.460198   607A      3.473939   608A      3.489196  
     609A      3.513341   610A      3.534746   611A      3.632491  
     612A      3.658238   613A      3.700939   614A      3.745968  
     615A      3.830182   616A      4.073174   617A      4.153773  
     618A      4.189941   619A      4.267565   620A      4.298372  

    Final Occupation by Irrep:
              A 
    DOCC [   119 ]

  Energy converged.

  @DF-RHF Final Energy: -1377.26555987364736

   => Energetics <=

    Nuclear Repulsion Energy =           3612.9033715848163411
    One-Electron Energy =               -9059.4284923202467326
    Two-Electron Energy =                4069.2595608617830294
    DFT Exchange-Correlation Energy =       0.0000000000000000
    Empirical Dispersion Energy =           0.0000000000000000
    PCM Polarization Energy =               0.0000000000000000
    EFP Energy =                            0.0000000000000000
    Total Energy =                      -1377.2655598736473621



Properties will be evaluated at   0.000000,   0.000000,   0.000000 Bohr

Properties computed using the SCF density matrix

  Nuclear Dipole Moment: (a.u.)
     X:    -5.1124      Y:     8.5900      Z:    -0.6155

  Electronic Dipole Moment: (a.u.)
     X:     4.7253      Y:    -7.5551      Z:     0.9865

  Dipole Moment: (a.u.)
     X:    -0.3870      Y:     1.0348      Z:     0.3710     Total:     1.1655

  Dipole Moment: (Debye)
     X:    -0.9837      Y:     2.6303      Z:     0.9430     Total:     2.9623


*** tstop() called on warthog at Thu Nov 16 18:09:10 2017
Module time:
	user time   =     678.50 seconds =      11.31 minutes
	system time =      15.47 seconds =       0.26 minutes
	total time  =        693 seconds =      11.55 minutes
Total time:
	user time   =     678.50 seconds =      11.31 minutes
	system time =      15.47 seconds =       0.26 minutes
	total time  =        693 seconds =      11.55 minutes

*** Psi4 exiting successfully. Buy a developer a beer!
