
    -----------------------------------------------------------------------
          Psi4: An Open-Source Ab Initio Electronic Structure Package
                               Psi4 1.1 release

                         Git: Rev {HEAD} add49b9 


    R. M. Parrish, L. A. Burns, D. G. A. Smith, A. C. Simmonett,
    A. E. DePrince III, E. G. Hohenstein, U. Bozkaya, A. Yu. Sokolov,
    R. Di Remigio, R. M. Richard, J. F. Gonthier, A. M. James,
    H. R. McAlexander, A. Kumar, M. Saitow, X. Wang, B. P. Pritchard,
    P. Verma, H. F. Schaefer III, K. Patkowski, R. A. King, E. F. Valeev,
    F. A. Evangelista, J. M. Turney, T. D. Crawford, and C. D. Sherrill,
    J. Chem. Theory Comput. in press (2017).
    (doi: 10.1021/acs.jctc.7b00174)

    -----------------------------------------------------------------------


    Psi4 started on: Monday, 20 November 2017 10:12AM

    Process ID:  29850
    PSIDATADIR: /home/dslochower/data/applications/psi4conda/share/psi4
    Memory:     500.0 MiB
    Threads:    1
    
  ==> Input File <==

--------------------------------------------------------------------------

memory 8000 mb

molecule  {
  0 1 
  C      1.718   2.544   6.070
  O      1.443   6.136   12.335
  C      1.130   2.832   4.835
  C      1.248   1.919   3.787
  C      1.922   0.711   3.951
  C      2.467   0.380   5.185
  C      2.355   1.290   6.230
  C      2.835   1.182   7.604
  C      3.577   0.181   8.215
  C      4.054   0.399   9.502
  C      3.814   1.610   10.149
  C      3.051   2.607   9.544
  C      2.511   2.376   8.284
  C      1.754   3.269   7.377
  C      1.253   4.503   7.633
  C      0.441   5.296   6.614
  C      -1.050   5.216   6.953
  C      1.000   6.726   6.795
  C      1.328   6.757   8.263
  C      1.422   7.860   9.084
  C      1.534   7.677   10.460
  C      1.512   6.390   10.991
  C      1.357   7.246   13.222
  C      1.493   5.240   10.168
  C      1.436   5.445   8.776
  C      1.333   3.911   10.831
  C      0.181   3.193   10.610
  C      -0.066   1.978   11.288
  C      0.856   1.473   12.161
  C      2.064   2.166   12.409
  C      3.049   1.656   13.307
  C      4.204   2.335   13.547
  C      4.431   3.583   12.927
  C      3.507   4.101   12.059
  C      2.304   3.411   11.762
  H      0.652   3.644   4.709
  H      0.862   2.126   2.945
  H      2.008   0.113   3.218
  H      2.909   -0.451   5.312
  H      3.756   -0.635   7.764
  H      4.547   -0.282   9.944
  H      4.175   1.758   11.014
  H      2.901   3.434   9.987
  H      0.613   4.962   5.687
  H      1.411   8.736   8.716
  H      1.626   8.428   11.034
  H      -0.460   3.520   9.992
  H      -0.878   1.510   11.135
  H      0.685   0.650   12.603
  H      2.895   0.827   13.745
  H      4.857   1.970   14.134
  H      5.229   4.065   13.112
  H      3.676   4.940   11.647
  H      -1.551   5.823   6.370
  H      -1.188   5.474   7.887
  H      -1.367   4.298   6.817
  H      1.808   6.869   6.242
  H      0.321   7.409   6.563
  H      0.585   7.799   12.979
  H      2.175   7.781   13.156
  H      1.250   6.923   14.140
  units Angstrom
}

dih_string = "17 4 2 5 10"
set optking fixed_dihedral = $dih_string

optimize('B3LYP/6-31G*')
--------------------------------------------------------------------------

  Memory set to   7.451 GiB by Python driver.
gradient() will perform analytic gradient computation.

*** tstart() called on warthog
*** at Mon Nov 20 10:12:20 2017

   => Loading Basis Set <=

    Name: 6-31G*
    Role: ORBITAL
    Keyword: BASIS
    atoms 1, 3-35 entry C          line   102 file /home/dslochower/data/applications/psi4conda/share/psi4/basis/6-31gs.gbs 
    atoms 2       entry O          line   136 file /home/dslochower/data/applications/psi4conda/share/psi4/basis/6-31gs.gbs 
    atoms 36-61   entry H          line    35 file /home/dslochower/data/applications/psi4conda/share/psi4/basis/6-31gs.gbs 


         ---------------------------------------------------------
                                   SCF
            by Justin Turney, Rob Parrish, and Andy Simmonett
                              RKS Reference
                        1 Threads,   7629 MiB Core
         ---------------------------------------------------------

  ==> Geometry <==

    Molecular point group: c1
    Full point group: C1

    Geometry (in Angstrom), charge = 0, multiplicity = 1:

       Center              X                  Y                   Z               Mass       
    ------------   -----------------  -----------------  -----------------  -----------------
           C         -0.190532089739    -1.032617897802    -3.186252945876    12.000000000000
           O         -0.465532089739     2.559382102198     3.078747054124    15.994914619560
           C         -0.778532089739    -0.744617897802    -4.421252945876    12.000000000000
           C         -0.660532089739    -1.657617897802    -5.469252945876    12.000000000000
           C          0.013467910261    -2.865617897802    -5.305252945876    12.000000000000
           C          0.558467910261    -3.196617897802    -4.071252945876    12.000000000000
           C          0.446467910261    -2.286617897802    -3.026252945876    12.000000000000
           C          0.926467910261    -2.394617897802    -1.652252945876    12.000000000000
           C          1.668467910261    -3.395617897802    -1.041252945876    12.000000000000
           C          2.145467910261    -3.177617897802     0.245747054124    12.000000000000
           C          1.905467910261    -1.966617897802     0.892747054124    12.000000000000
           C          1.142467910261    -0.969617897802     0.287747054124    12.000000000000
           C          0.602467910261    -1.200617897802    -0.972252945876    12.000000000000
           C         -0.154532089739    -0.307617897802    -1.879252945876    12.000000000000
           C         -0.655532089739     0.926382102198    -1.623252945876    12.000000000000
           C         -1.467532089739     1.719382102198    -2.642252945876    12.000000000000
           C         -2.958532089739     1.639382102198    -2.303252945876    12.000000000000
           C         -0.908532089739     3.149382102198    -2.461252945876    12.000000000000
           C         -0.580532089739     3.180382102198    -0.993252945876    12.000000000000
           C         -0.486532089739     4.283382102198    -0.172252945876    12.000000000000
           C         -0.374532089739     4.100382102198     1.203747054124    12.000000000000
           C         -0.396532089739     2.813382102198     1.734747054124    12.000000000000
           C         -0.551532089739     3.669382102198     3.965747054124    12.000000000000
           C         -0.415532089739     1.663382102198     0.911747054124    12.000000000000
           C         -0.472532089739     1.868382102198    -0.480252945876    12.000000000000
           C         -0.575532089739     0.334382102198     1.574747054124    12.000000000000
           C         -1.727532089739    -0.383617897802     1.353747054124    12.000000000000
           C         -1.974532089739    -1.598617897802     2.031747054124    12.000000000000
           C         -1.052532089739    -2.103617897802     2.904747054124    12.000000000000
           C          0.155467910261    -1.410617897802     3.152747054124    12.000000000000
           C          1.140467910261    -1.920617897802     4.050747054124    12.000000000000
           C          2.295467910261    -1.241617897802     4.290747054124    12.000000000000
           C          2.522467910261     0.006382102198     3.670747054124    12.000000000000
           C          1.598467910261     0.524382102198     2.802747054124    12.000000000000
           C          0.395467910261    -0.165617897802     2.505747054124    12.000000000000
           H         -1.256532089739     0.067382102198    -4.547252945876     1.007825032070
           H         -1.046532089739    -1.450617897802    -6.311252945876     1.007825032070
           H          0.099467910261    -3.463617897802    -6.038252945876     1.007825032070
           H          1.000467910261    -4.027617897802    -3.944252945876     1.007825032070
           H          1.847467910261    -4.211617897802    -1.492252945876     1.007825032070
           H          2.638467910261    -3.858617897802     0.687747054124     1.007825032070
           H          2.266467910261    -1.818617897802     1.757747054124     1.007825032070
           H          0.992467910261    -0.142617897802     0.730747054124     1.007825032070
           H         -1.295532089739     1.385382102198    -3.569252945876     1.007825032070
           H         -0.497532089739     5.159382102198    -0.540252945876     1.007825032070
           H         -0.282532089739     4.851382102198     1.777747054124     1.007825032070
           H         -2.368532089739    -0.056617897802     0.735747054124     1.007825032070
           H         -2.786532089739    -2.066617897802     1.878747054124     1.007825032070
           H         -1.223532089739    -2.926617897802     3.346747054124     1.007825032070
           H          0.986467910261    -2.749617897802     4.488747054124     1.007825032070
           H          2.948467910261    -1.606617897802     4.877747054124     1.007825032070
           H          3.320467910261     0.488382102198     3.855747054124     1.007825032070
           H          1.767467910261     1.363382102198     2.390747054124     1.007825032070
           H         -3.459532089739     2.246382102198    -2.886252945876     1.007825032070
           H         -3.096532089739     1.897382102198    -1.369252945876     1.007825032070
           H         -3.275532089739     0.721382102198    -2.439252945876     1.007825032070
           H         -0.100532089739     3.292382102198    -3.014252945876     1.007825032070
           H         -1.587532089739     3.832382102198    -2.693252945876     1.007825032070
           H         -1.323532089739     4.222382102198     3.722747054124     1.007825032070
           H          0.266467910261     4.204382102198     3.899747054124     1.007825032070
           H         -0.658532089739     3.346382102198     4.883747054124     1.007825032070

  Running in c1 symmetry.

  Rotational constants: A =      0.00600  B =      0.00401  C =      0.00275 [cm^-1]
  Rotational constants: A =    179.94133  B =    120.20466  C =     82.35330 [MHz]
  Nuclear repulsion = 3647.055643885569680

  Charge       = 0
  Multiplicity = 1
  Electrons    = 238
  Nalpha       = 119
  Nbeta        = 119

  ==> Algorithm <==

  SCF Algorithm Type is DF.
  DIIS enabled.
  MOM disabled.
  Fractional occupation disabled.
  Guess Type is SAD.
  Energy threshold   = 1.00e-08
  Density threshold  = 1.00e-08
  Integral threshold = 0.00e+00

  ==> Primary Basis <==

  Basis Set: 6-31G*
    Blend: 6-31G*
    Number of shells: 262
    Number of basis function: 577
    Number of Cartesian functions: 577
    Spherical Harmonics?: false
    Max angular momentum: 2

  ==> DFT Potential <==

   => B3LYP Composite Functional <= 

    B3LYP Hybrid-GGA Exchange-Correlation Functional (VWN1-RPA)

    P.J. Stephens et. al., J. Phys. Chem., 98, 11623-11627, 1994

    Points   =           5000
    Deriv    =              1
    GGA      =           TRUE
    Meta     =          FALSE

    X_LRC        =          FALSE
    X_Hybrid     =           TRUE
    X_Alpha      =   2.000000E-01
    X_Omega      =   0.000000E+00
    C_LRC        =          FALSE
    C_Hybrid     =          FALSE
    C_Alpha      =   0.000000E+00
    C_Omega      =   0.000000E+00

   => Exchange Functionals <=

    0.8000    B3_X
    0.2000      HF 

   => Correlation Functionals <=

    0.1900 VWN3RPA_C
    0.8100   LYP_C

   => Molecular Quadrature <=

    Radial Scheme    =       TREUTLER
    Pruning Scheme   =           FLAT
    Nuclear Scheme   =       TREUTLER

    BS radius alpha  =              1
    Pruning alpha    =              1
    Radial Points    =             75
    Spherical Points =            302
    Total Points     =        1356675
    Total Blocks     =           1037
    Max Points       =           4982
    Max Functions    =            467

   => Loading Basis Set <=

    Name: (6-31G* AUX)
    Role: JKFIT
    Keyword: DF_BASIS_SCF
    atoms 1, 3-35 entry C          line   120 file /home/dslochower/data/applications/psi4conda/share/psi4/basis/cc-pvdz-jkfit.gbs 
    atoms 2       entry O          line   220 file /home/dslochower/data/applications/psi4conda/share/psi4/basis/cc-pvdz-jkfit.gbs 
    atoms 36-61   entry H          line    50 file /home/dslochower/data/applications/psi4conda/share/psi4/basis/cc-pvdz-jkfit.gbs 

  ==> Pre-Iterations <==

   -------------------------------------------------------
    Irrep   Nso     Nmo     Nalpha   Nbeta   Ndocc  Nsocc
   -------------------------------------------------------
     A        577     577       0       0       0       0
   -------------------------------------------------------
    Total     577     577     119     119     119       0
   -------------------------------------------------------

  ==> Integral Setup <==

  ==> DFJK: Density-Fitted J/K Matrices <==

    J tasked:                  Yes
    K tasked:                  Yes
    wK tasked:                  No
    OpenMP threads:              1
    Integrals threads:           1
    Memory (MB):              5722
    Algorithm:                Core
    Integral Cache:           NONE
    Schwarz Cutoff:          1E-12
    Fitting Condition:       1E-12

   => Auxiliary Basis Set <=

  Basis Set: (6-31G* AUX)
    Blend: CC-PVDZ-JKFIT
    Number of shells: 1074
    Number of basis function: 3485
    Number of Cartesian functions: 3485
    Spherical Harmonics?: false
    Max angular momentum: 3

  Minimum eigenvalue in the overlap matrix is 2.2938398120E-04.
  Using Symmetric Orthogonalization.

  SCF Guess: Superposition of Atomic Densities via on-the-fly atomic UHF.

  ==> Iterations <==

                           Total Energy        Delta E     RMS |[F,P]|

   @DF-RKS iter   0: -1396.26955870951565   -1.39627e+03   1.86876e-02 
   @DF-RKS iter   1: -1385.39286265716623    1.08767e+01   1.97255e-03 
   @DF-RKS iter   2: -1385.41698987618634   -2.41272e-02   2.02947e-03 DIIS
   @DF-RKS iter   3: -1386.01338407552703   -5.96394e-01   6.77067e-04 DIIS
   @DF-RKS iter   4: -1386.08209534288176   -6.87113e-02   2.74890e-04 DIIS
   @DF-RKS iter   5: -1386.09374275024925   -1.16474e-02   1.13328e-04 DIIS
   @DF-RKS iter   6: -1386.09579209267417   -2.04934e-03   2.96616e-05 DIIS
   @DF-RKS iter   7: -1386.09591068671148   -1.18594e-04   1.42329e-05 DIIS
   @DF-RKS iter   8: -1386.09594570271292   -3.50160e-05   3.67111e-06 DIIS
   @DF-RKS iter   9: -1386.09594786194930   -2.15924e-06   1.34056e-06 DIIS
   @DF-RKS iter  10: -1386.09594816111917   -2.99170e-07   4.04747e-07 DIIS
   @DF-RKS iter  11: -1386.09594818777191   -2.66527e-08   1.51101e-07 DIIS
   @DF-RKS iter  12: -1386.09594819153472   -3.76281e-09   4.66701e-08 DIIS
   @DF-RKS iter  13: -1386.09594819193740   -4.02679e-10   1.82403e-08 DIIS
   @DF-RKS iter  14: -1386.09594819195536   -1.79625e-11   9.09613e-09 DIIS

  ==> Post-Iterations <==

    Orbital Energies (a.u.)
    -----------------------

    Doubly Occupied:                                                      

       1A    -19.170597     2A    -10.244552     3A    -10.207048  
       4A    -10.195717     5A    -10.195061     6A    -10.194145  
       7A    -10.189324     8A    -10.187382     9A    -10.183200  
      10A    -10.182591    11A    -10.181560    12A    -10.178929  
      13A    -10.175704    14A    -10.173550    15A    -10.172973  
      16A    -10.172945    17A    -10.167018    18A    -10.166479  
      19A    -10.166301    20A    -10.165656    21A    -10.164884  
      22A    -10.164597    23A    -10.164079    24A    -10.163916  
      25A    -10.163553    26A    -10.162429    27A    -10.160708  
      28A    -10.160220    29A    -10.159804    30A    -10.159449  
      31A    -10.153378    32A    -10.152418    33A    -10.146200  
      34A    -10.144537    35A    -10.138109    36A     -1.059838  
      37A     -0.885598    38A     -0.870532    39A     -0.868028  
      40A     -0.830384    41A     -0.828488    42A     -0.819230  
      43A     -0.794440    44A     -0.788507    45A     -0.762264  
      46A     -0.759333    47A     -0.755263    48A     -0.744045  
      49A     -0.736276    50A     -0.732581    51A     -0.725331  
      52A     -0.705783    53A     -0.704291    54A     -0.686246  
      55A     -0.657770    56A     -0.643942    57A     -0.629752  
      58A     -0.621434    59A     -0.617096    60A     -0.603505  
      61A     -0.591565    62A     -0.586555    63A     -0.576463  
      64A     -0.570768    65A     -0.556228    66A     -0.537509  
      67A     -0.533622    68A     -0.519882    69A     -0.507107  
      70A     -0.503865    71A     -0.499336    72A     -0.496692  
      73A     -0.487022    74A     -0.480044    75A     -0.471501  
      76A     -0.464399    77A     -0.458291    78A     -0.451709  
      79A     -0.450554    80A     -0.444005    81A     -0.443823  
      82A     -0.435147    83A     -0.430086    84A     -0.426335  
      85A     -0.417604    86A     -0.415196    87A     -0.410827  
      88A     -0.409167    89A     -0.407421    90A     -0.401141  
      91A     -0.388219    92A     -0.381233    93A     -0.377069  
      94A     -0.374505    95A     -0.369077    96A     -0.364018  
      97A     -0.357456    98A     -0.355025    99A     -0.348642  
     100A     -0.344246   101A     -0.338692   102A     -0.335884  
     103A     -0.334387   104A     -0.328353   105A     -0.321959  
     106A     -0.320802   107A     -0.314074   108A     -0.310661  
     109A     -0.299855   110A     -0.291791   111A     -0.264702  
     112A     -0.262953   113A     -0.252025   114A     -0.234890  
     115A     -0.228204   116A     -0.217045   117A     -0.200913  
     118A     -0.193283   119A     -0.189995  

    Virtual:                                                              

     120A     -0.053484   121A     -0.031656   122A     -0.008173  
     123A      0.000233   124A      0.003631   125A      0.020876  
     126A      0.027533   127A      0.045073   128A      0.062206  
     129A      0.094163   130A      0.106467   131A      0.113900  
     132A      0.116525   133A      0.121663   134A      0.139024  
     135A      0.143705   136A      0.148247   137A      0.150885  
     138A      0.153163   139A      0.159500   140A      0.165856  
     141A      0.173311   142A      0.177031   143A      0.180445  
     144A      0.184608   145A      0.187092   146A      0.191152  
     147A      0.192325   148A      0.194320   149A      0.198990  
     150A      0.201046   151A      0.203492   152A      0.209668  
     153A      0.211930   154A      0.218147   155A      0.220043  
     156A      0.220985   157A      0.229298   158A      0.232786  
     159A      0.239395   160A      0.240892   161A      0.253966  
     162A      0.254770   163A      0.264336   164A      0.266151  
     165A      0.270836   166A      0.274253   167A      0.280664  
     168A      0.283123   169A      0.286069   170A      0.296643  
     171A      0.302752   172A      0.307498   173A      0.311522  
     174A      0.318369   175A      0.322770   176A      0.329769  
     177A      0.334089   178A      0.342245   179A      0.344291  
     180A      0.350291   181A      0.358481   182A      0.372394  
     183A      0.384146   184A      0.398292   185A      0.401809  
     186A      0.410660   187A      0.414784   188A      0.418147  
     189A      0.437818   190A      0.455181   191A      0.461797  
     192A      0.478235   193A      0.482445   194A      0.486757  
     195A      0.498945   196A      0.503527   197A      0.505144  
     198A      0.509831   199A      0.515566   200A      0.518543  
     201A      0.523919   202A      0.531317   203A      0.536272  
     204A      0.539666   205A      0.543670   206A      0.550231  
     207A      0.551442   208A      0.557694   209A      0.559918  
     210A      0.562506   211A      0.566260   212A      0.570772  
     213A      0.575128   214A      0.577429   215A      0.582636  
     216A      0.583378   217A      0.589063   218A      0.594051  
     219A      0.595801   220A      0.600037   221A      0.606032  
     222A      0.609588   223A      0.611178   224A      0.615899  
     225A      0.617823   226A      0.618426   227A      0.621187  
     228A      0.624996   229A      0.629630   230A      0.630354  
     231A      0.632636   232A      0.634766   233A      0.639520  
     234A      0.643432   235A      0.644649   236A      0.650614  
     237A      0.652821   238A      0.655077   239A      0.663145  
     240A      0.665933   241A      0.668237   242A      0.678167  
     243A      0.679375   244A      0.685844   245A      0.689467  
     246A      0.695822   247A      0.701866   248A      0.711159  
     249A      0.711873   250A      0.719604   251A      0.730806  
     252A      0.739974   253A      0.747473   254A      0.755547  
     255A      0.762700   256A      0.777978   257A      0.785192  
     258A      0.798431   259A      0.808634   260A      0.823778  
     261A      0.826626   262A      0.837176   263A      0.841850  
     264A      0.846663   265A      0.849645   266A      0.858534  
     267A      0.874035   268A      0.880800   269A      0.890393  
     270A      0.894930   271A      0.901497   272A      0.904705  
     273A      0.910458   274A      0.913049   275A      0.916401  
     276A      0.919264   277A      0.927256   278A      0.931108  
     279A      0.932252   280A      0.939236   281A      0.940719  
     282A      0.947011   283A      0.950951   284A      0.954221  
     285A      0.959101   286A      0.960413   287A      0.964476  
     288A      0.968327   289A      0.976715   290A      0.980751  
     291A      0.984249   292A      0.986118   293A      0.993187  
     294A      0.998852   295A      1.000711   296A      1.006550  
     297A      1.010772   298A      1.013406   299A      1.017156  
     300A      1.023206   301A      1.025351   302A      1.032114  
     303A      1.034407   304A      1.039609   305A      1.042430  
     306A      1.048883   307A      1.059397   308A      1.072424  
     309A      1.076938   310A      1.080078   311A      1.087538  
     312A      1.091561   313A      1.099151   314A      1.103738  
     315A      1.108576   316A      1.112688   317A      1.123936  
     318A      1.138077   319A      1.148915   320A      1.153342  
     321A      1.157783   322A      1.166043   323A      1.179328  
     324A      1.182669   325A      1.192732   326A      1.196267  
     327A      1.200503   328A      1.213890   329A      1.231850  
     330A      1.237248   331A      1.244064   332A      1.251226  
     333A      1.252683   334A      1.259235   335A      1.263107  
     336A      1.270303   337A      1.273632   338A      1.293080  
     339A      1.298136   340A      1.304761   341A      1.307120  
     342A      1.318343   343A      1.333002   344A      1.342223  
     345A      1.347901   346A      1.364540   347A      1.372244  
     348A      1.384002   349A      1.402556   350A      1.409085  
     351A      1.413366   352A      1.430611   353A      1.440579  
     354A      1.449811   355A      1.457181   356A      1.467495  
     357A      1.472251   358A      1.477725   359A      1.487236  
     360A      1.488144   361A      1.490974   362A      1.501777  
     363A      1.504612   364A      1.510566   365A      1.511927  
     366A      1.513862   367A      1.524157   368A      1.529016  
     369A      1.540626   370A      1.547285   371A      1.556152  
     372A      1.561993   373A      1.568767   374A      1.572578  
     375A      1.582383   376A      1.592769   377A      1.596527  
     378A      1.610703   379A      1.619655   380A      1.649939  
     381A      1.663293   382A      1.667936   383A      1.677382  
     384A      1.695059   385A      1.700690   386A      1.720821  
     387A      1.728879   388A      1.732192   389A      1.754917  
     390A      1.770589   391A      1.778579   392A      1.790678  
     393A      1.798377   394A      1.804990   395A      1.808933  
     396A      1.822703   397A      1.828837   398A      1.841976  
     399A      1.845790   400A      1.854000   401A      1.864667  
     402A      1.873934   403A      1.878407   404A      1.887744  
     405A      1.893500   406A      1.900634   407A      1.913370  
     408A      1.928069   409A      1.938989   410A      1.954227  
     411A      1.966246   412A      1.970206   413A      1.982490  
     414A      1.987016   415A      1.991343   416A      1.999453  
     417A      2.006468   418A      2.014120   419A      2.023795  
     420A      2.035083   421A      2.041902   422A      2.048896  
     423A      2.052326   424A      2.064123   425A      2.074058  
     426A      2.084293   427A      2.093838   428A      2.098252  
     429A      2.101948   430A      2.107778   431A      2.112575  
     432A      2.113926   433A      2.117186   434A      2.127956  
     435A      2.134489   436A      2.138952   437A      2.150256  
     438A      2.154740   439A      2.159171   440A      2.164954  
     441A      2.175435   442A      2.180132   443A      2.182395  
     444A      2.192959   445A      2.197638   446A      2.198336  
     447A      2.209111   448A      2.213059   449A      2.225444  
     450A      2.229299   451A      2.235213   452A      2.245698  
     453A      2.246316   454A      2.254527   455A      2.256698  
     456A      2.262808   457A      2.268851   458A      2.277222  
     459A      2.286813   460A      2.295411   461A      2.302940  
     462A      2.305831   463A      2.311525   464A      2.323395  
     465A      2.330366   466A      2.337190   467A      2.342535  
     468A      2.347741   469A      2.356108   470A      2.364073  
     471A      2.378755   472A      2.387544   473A      2.396726  
     474A      2.404757   475A      2.412270   476A      2.425932  
     477A      2.434170   478A      2.462626   479A      2.466522  
     480A      2.483729   481A      2.494768   482A      2.495522  
     483A      2.519090   484A      2.527930   485A      2.557184  
     486A      2.570297   487A      2.572436   488A      2.578742  
     489A      2.597995   490A      2.603583   491A      2.627047  
     492A      2.628849   493A      2.641732   494A      2.653063  
     495A      2.666750   496A      2.678181   497A      2.688027  
     498A      2.690088   499A      2.704191   500A      2.706655  
     501A      2.714176   502A      2.720358   503A      2.727422  
     504A      2.730319   505A      2.734890   506A      2.747817  
     507A      2.756629   508A      2.758708   509A      2.774222  
     510A      2.785915   511A      2.792361   512A      2.800338  
     513A      2.807577   514A      2.810788   515A      2.824041  
     516A      2.832394   517A      2.837646   518A      2.859472  
     519A      2.878296   520A      2.899709   521A      2.906640  
     522A      2.914988   523A      2.933426   524A      2.948631  
     525A      2.961084   526A      2.970904   527A      2.987326  
     528A      3.006457   529A      3.016980   530A      3.055742  
     531A      3.067136   532A      3.083185   533A      3.177296  
     534A      3.214400   535A      3.250083   536A      3.309659  
     537A      3.376542   538A      3.450536   539A      3.493770  
     540A      3.509233   541A      3.594141   542A      3.642165  
     543A      4.093310   544A      4.109165   545A      4.121912  
     546A      4.130306   547A      4.138769   548A      4.150799  
     549A      4.156382   550A      4.183878   551A      4.198032  
     552A      4.218437   553A      4.223147   554A      4.243538  
     555A      4.253522   556A      4.268978   557A      4.282870  
     558A      4.290373   559A      4.323112   560A      4.362384  
     561A      4.365892   562A      4.392736   563A      4.401413  
     564A      4.434284   565A      4.444128   566A      4.465882  
     567A      4.494982   568A      4.505636   569A      4.553064  
     570A      4.582608   571A      4.618064   572A      4.691645  
     573A      4.709093   574A      4.838132   575A      4.874762  
     576A      4.884371   577A      4.930690  

    Final Occupation by Irrep:
              A 
    DOCC [   119 ]

  Energy converged.

  @DF-RKS Final Energy: -1386.09594819195536

   => Energetics <=

    Nuclear Repulsion Energy =           3647.0556438855696797
    One-Electron Energy =               -9133.1766700502412277
    Two-Electron Energy =                4265.3671642570598124
    DFT Exchange-Correlation Energy =    -165.3420862843428552
    Empirical Dispersion Energy =           0.0000000000000000
    PCM Polarization Energy =               0.0000000000000000
    EFP Energy =                            0.0000000000000000
    Total Energy =                      -1386.0959481919551308



Properties will be evaluated at   0.000000,   0.000000,   0.000000 Bohr

Properties computed using the SCF density matrix

  Nuclear Dipole Moment: (a.u.)
     X:    -5.7441      Y:     8.1673      Z:     0.1924

  Electronic Dipole Moment: (a.u.)
     X:     5.3953      Y:    -7.1168      Z:     0.4420

  Dipole Moment: (a.u.)
     X:    -0.3488      Y:     1.0505      Z:     0.6343     Total:     1.2758

  Dipole Moment: (Debye)
     X:    -0.8866      Y:     2.6700      Z:     1.6123     Total:     3.2426


*** tstop() called on warthog at Mon Nov 20 10:39:03 2017
Module time:
	user time   =    1591.78 seconds =      26.53 minutes
	system time =      11.40 seconds =       0.19 minutes
	total time  =       1603 seconds =      26.72 minutes
Total time:
	user time   =    1591.78 seconds =      26.53 minutes
	system time =      11.40 seconds =       0.19 minutes
	total time  =       1603 seconds =      26.72 minutes

*** tstart() called on warthog
*** at Mon Nov 20 10:39:03 2017


         ------------------------------------------------------------
                                   SCF GRAD                          
                          Rob Parrish, Justin Turney,                
                       Andy Simmonett, and Alex Sokolov              
         ------------------------------------------------------------

  ==> Geometry <==

    Molecular point group: c1
    Full point group: C1

    Geometry (in Angstrom), charge = 0, multiplicity = 1:

       Center              X                  Y                   Z               Mass       
    ------------   -----------------  -----------------  -----------------  -----------------
           C         -0.190532089739    -1.032617897802    -3.186252945876    12.000000000000
           O         -0.465532089739     2.559382102198     3.078747054124    15.994914619560
           C         -0.778532089739    -0.744617897802    -4.421252945876    12.000000000000
           C         -0.660532089739    -1.657617897802    -5.469252945876    12.000000000000
           C          0.013467910261    -2.865617897802    -5.305252945876    12.000000000000
           C          0.558467910261    -3.196617897802    -4.071252945876    12.000000000000
           C          0.446467910261    -2.286617897802    -3.026252945876    12.000000000000
           C          0.926467910261    -2.394617897802    -1.652252945876    12.000000000000
           C          1.668467910261    -3.395617897802    -1.041252945876    12.000000000000
           C          2.145467910261    -3.177617897802     0.245747054124    12.000000000000
           C          1.905467910261    -1.966617897802     0.892747054124    12.000000000000
           C          1.142467910261    -0.969617897802     0.287747054124    12.000000000000
           C          0.602467910261    -1.200617897802    -0.972252945876    12.000000000000
           C         -0.154532089739    -0.307617897802    -1.879252945876    12.000000000000
           C         -0.655532089739     0.926382102198    -1.623252945876    12.000000000000
           C         -1.467532089739     1.719382102198    -2.642252945876    12.000000000000
           C         -2.958532089739     1.639382102198    -2.303252945876    12.000000000000
           C         -0.908532089739     3.149382102198    -2.461252945876    12.000000000000
           C         -0.580532089739     3.180382102198    -0.993252945876    12.000000000000
           C         -0.486532089739     4.283382102198    -0.172252945876    12.000000000000
           C         -0.374532089739     4.100382102198     1.203747054124    12.000000000000
           C         -0.396532089739     2.813382102198     1.734747054124    12.000000000000
           C         -0.551532089739     3.669382102198     3.965747054124    12.000000000000
           C         -0.415532089739     1.663382102198     0.911747054124    12.000000000000
           C         -0.472532089739     1.868382102198    -0.480252945876    12.000000000000
           C         -0.575532089739     0.334382102198     1.574747054124    12.000000000000
           C         -1.727532089739    -0.383617897802     1.353747054124    12.000000000000
           C         -1.974532089739    -1.598617897802     2.031747054124    12.000000000000
           C         -1.052532089739    -2.103617897802     2.904747054124    12.000000000000
           C          0.155467910261    -1.410617897802     3.152747054124    12.000000000000
           C          1.140467910261    -1.920617897802     4.050747054124    12.000000000000
           C          2.295467910261    -1.241617897802     4.290747054124    12.000000000000
           C          2.522467910261     0.006382102198     3.670747054124    12.000000000000
           C          1.598467910261     0.524382102198     2.802747054124    12.000000000000
           C          0.395467910261    -0.165617897802     2.505747054124    12.000000000000
           H         -1.256532089739     0.067382102198    -4.547252945876     1.007825032070
           H         -1.046532089739    -1.450617897802    -6.311252945876     1.007825032070
           H          0.099467910261    -3.463617897802    -6.038252945876     1.007825032070
           H          1.000467910261    -4.027617897802    -3.944252945876     1.007825032070
           H          1.847467910261    -4.211617897802    -1.492252945876     1.007825032070
           H          2.638467910261    -3.858617897802     0.687747054124     1.007825032070
           H          2.266467910261    -1.818617897802     1.757747054124     1.007825032070
           H          0.992467910261    -0.142617897802     0.730747054124     1.007825032070
           H         -1.295532089739     1.385382102198    -3.569252945876     1.007825032070
           H         -0.497532089739     5.159382102198    -0.540252945876     1.007825032070
           H         -0.282532089739     4.851382102198     1.777747054124     1.007825032070
           H         -2.368532089739    -0.056617897802     0.735747054124     1.007825032070
           H         -2.786532089739    -2.066617897802     1.878747054124     1.007825032070
           H         -1.223532089739    -2.926617897802     3.346747054124     1.007825032070
           H          0.986467910261    -2.749617897802     4.488747054124     1.007825032070
           H          2.948467910261    -1.606617897802     4.877747054124     1.007825032070
           H          3.320467910261     0.488382102198     3.855747054124     1.007825032070
           H          1.767467910261     1.363382102198     2.390747054124     1.007825032070
           H         -3.459532089739     2.246382102198    -2.886252945876     1.007825032070
           H         -3.096532089739     1.897382102198    -1.369252945876     1.007825032070
           H         -3.275532089739     0.721382102198    -2.439252945876     1.007825032070
           H         -0.100532089739     3.292382102198    -3.014252945876     1.007825032070
           H         -1.587532089739     3.832382102198    -2.693252945876     1.007825032070
           H         -1.323532089739     4.222382102198     3.722747054124     1.007825032070
           H          0.266467910261     4.204382102198     3.899747054124     1.007825032070
           H         -0.658532089739     3.346382102198     4.883747054124     1.007825032070

  Nuclear repulsion = 3647.055643885569680

  ==> Basis Set <==

  Basis Set: 6-31G*
    Blend: 6-31G*
    Number of shells: 262
    Number of basis function: 577
    Number of Cartesian functions: 577
    Spherical Harmonics?: false
    Max angular momentum: 2

  ==> DFJKGrad: Density-Fitted SCF Gradients <==

    Gradient:                    1
    J tasked:                  Yes
    K tasked:                  Yes
    wK tasked:                  No
    OpenMP threads:              1
    Integrals threads:           1
    Memory (MB):              5722
    Schwarz Cutoff:          0E+00
    Fitting Condition:       1E-12

   => Auxiliary Basis Set <=

  Basis Set: (6-31G* AUX)
    Blend: CC-PVDZ-JKFIT
    Number of shells: 1074
    Number of basis function: 3485
    Number of Cartesian functions: 3485
    Spherical Harmonics?: false
    Max angular momentum: 3

  ==> DFT Potential <==

   => B3LYP Composite Functional <= 

    B3LYP Hybrid-GGA Exchange-Correlation Functional (VWN1-RPA)

    P.J. Stephens et. al., J. Phys. Chem., 98, 11623-11627, 1994

    Points   =           5000
    Deriv    =              1
    GGA      =           TRUE
    Meta     =          FALSE

    X_LRC        =          FALSE
    X_Hybrid     =           TRUE
    X_Alpha      =   2.000000E-01
    X_Omega      =   0.000000E+00
    C_LRC        =          FALSE
    C_Hybrid     =          FALSE
    C_Alpha      =   0.000000E+00
    C_Omega      =   0.000000E+00

   => Exchange Functionals <=

    0.8000    B3_X
    0.2000      HF 

   => Correlation Functionals <=

    0.1900 VWN3RPA_C
    0.8100   LYP_C

   => Molecular Quadrature <=

    Radial Scheme    =       TREUTLER
    Pruning Scheme   =           FLAT
    Nuclear Scheme   =       TREUTLER

    BS radius alpha  =              1
    Pruning alpha    =              1
    Radial Points    =             75
    Spherical Points =            302
    Total Points     =        1356675
    Total Blocks     =           1037
    Max Points       =           4982
    Max Functions    =            467


  -Total Gradient:
     Atom            X                  Y                   Z
    ------   -----------------  -----------------  -----------------
       1        0.010381789483     0.006703420384    -0.003928915230
       2       -0.000703956280     0.005266940339    -0.000131332452
       3       -0.068628110339     0.111956728009    -0.021502919264
       4       -0.054999515907     0.027998610104    -0.118565682545
       5        0.012806385769    -0.085631708786    -0.102311832249
       6        0.061823237135    -0.119864153043     0.015088039274
       7        0.000750085941     0.000563505912    -0.004398911828
       8        0.001019200789    -0.002624618322     0.002806836830
       9        0.028620876218    -0.114922084683    -0.060637787293
      10        0.071249244103    -0.097555196208     0.059165520916
      11        0.046116853363     0.024254891282     0.127947540084
      12       -0.032604994141     0.114815732942     0.086293930477
      13       -0.010360148272    -0.003928249241     0.008874353548
      14       -0.006468639914     0.007193759398    -0.001110805610
      15        0.002334531715    -0.005798688221    -0.001951997471
      16       -0.005112724348    -0.025248413553    -0.065802714195
      17       -0.096351777622    -0.003128139911     0.025246220093
      18        0.017636991255     0.068764176021    -0.070467454107
      19        0.000067271406     0.004901150179    -0.000517635813
      20       -0.005037818972     0.124803060855    -0.049280602205
      21        0.008554657039     0.105079381204     0.075722189656
      22        0.000905537151     0.003823051677    -0.007317103879
      23       -0.006546971722     0.067881272583     0.068015843130
      24        0.001129668812     0.003048862149    -0.000492107615
      25        0.008593885152     0.006843894299    -0.002526264841
      26        0.019043251584    -0.013452585473    -0.018363623059
      27       -0.091659884402     0.046564648849    -0.089959102051
      28       -0.115000397711    -0.067761072034    -0.018562998664
      29       -0.024705914649    -0.113771097406     0.061272766421
      30       -0.002977519014    -0.006006554817    -0.009503406944
      31       -0.007393689395    -0.113896619707     0.064739773482
      32        0.083133863587    -0.057351888263     0.078658546530
      33        0.110834742148     0.070766862663     0.023615692972
      34        0.027958378387     0.114339609297    -0.060029528040
      35        0.014228273778    -0.008017745583    -0.033170962760
      36        0.068711710664    -0.111354866769     0.023698718882
      37        0.058052568354    -0.031765494839     0.126035054902
      38       -0.011644407665     0.089296721405     0.108745756231
      39       -0.065936656490     0.123424954811    -0.018922778258
      40       -0.028022286467     0.121561514368     0.067762031912
      41       -0.074667640280     0.100679120722    -0.065493697019
      42       -0.054144853201    -0.020909777501    -0.123862906032
      43       -0.000447015289    -0.099499604634    -0.033621515723
      44       -0.010270297154     0.018963459511     0.067362711301
      45        0.003565073652    -0.130289989906     0.053126579037
      46       -0.010047020310    -0.110893604856    -0.083726654182
      47        0.096309036391    -0.049716152086     0.092064750953
      48        0.120978245006     0.069199839643     0.023968701129
      49        0.023828568977     0.122552146598    -0.066932532988
      50        0.024883593604     0.123866987170    -0.063108253535
      51       -0.095782769321     0.052789675769    -0.086952743888
      52       -0.117939083892    -0.071084715346    -0.026866557388
      53       -0.024195920678    -0.122557599128     0.061639386720
      54        0.055737032345    -0.065472765053     0.063291095544
      55        0.016827610044    -0.028181130324    -0.101125057509
      56        0.034955909850     0.097476498636     0.013646874580
      57       -0.076942719551    -0.011744827306     0.054494430135
      58        0.062025366294    -0.065367525274     0.022849171648
      59        0.084211282760    -0.060868953667     0.025020633152
      60       -0.089449252499    -0.059573103355     0.005152241153
      61        0.010763072334     0.042830235672    -0.095174695954


*** tstop() called on warthog at Mon Nov 20 10:46:33 2017
Module time:
	user time   =     444.84 seconds =       7.41 minutes
	system time =       4.79 seconds =       0.08 minutes
	total time  =        450 seconds =       7.50 minutes
Total time:
	user time   =    2036.62 seconds =      33.94 minutes
	system time =      16.19 seconds =       0.27 minutes
	total time  =       2053 seconds =      34.22 minutes

			-----------------------------------------
			 OPTKING 2.0: for geometry optimizations 
			  - R.A. King,  Bethel University        
			-----------------------------------------

	Internal coordinates to be generated automatically.
	Detected frag 1 with atoms:  1 2 3 4 5 6 7 8 9 10 11 12 13 14 15 16 17 18 19 20
	 21 22 23 24 25 26 27 28 29 30 31 32 33 34 35 36 37 38 39 40
	 41 42 43 44 45 46 47 48 49 50 51 52 53 54 55 56 57 58 59 60
	 61
	---Fragment 1 Bond Connectivity---
	 1 : 3 7 14
	 2 : 22 23
	 3 : 1 4 36
	 4 : 3 5 37
	 5 : 4 6 38
	 6 : 5 7 39
	 7 : 1 6 8
	 8 : 7 9 13
	 9 : 8 10 40
	 10 : 9 11 41
	 11 : 10 12 42
	 12 : 11 13 43
	 13 : 8 12 14
	 14 : 1 13 15
	 15 : 14 16 25
	 16 : 15 17 18 44
	 17 : 16 54 55 56
	 18 : 16 19 57 58
	 19 : 18 20 25
	 20 : 19 21 45
	 21 : 20 22 46
	 22 : 2 21 24
	 23 : 2 59 60 61
	 24 : 22 25 26
	 25 : 15 19 24
	 26 : 24 27 35
	 27 : 26 28 47
	 28 : 27 29 48
	 29 : 28 30 49
	 30 : 29 31 35
	 31 : 30 32 50
	 32 : 31 33 51
	 33 : 32 34 52
	 34 : 33 35 53
	 35 : 26 30 34
	 36 : 3
	 37 : 4
	 38 : 5
	 39 : 6
	 40 : 9
	 41 : 10
	 42 : 11
	 43 : 12
	 44 : 16
	 45 : 20
	 46 : 21
	 47 : 27
	 48 : 28
	 49 : 29
	 50 : 31
	 51 : 32
	 52 : 33
	 53 : 34
	 54 : 17
	 55 : 17
	 56 : 17
	 57 : 18
	 58 : 18
	 59 : 23
	 60 : 23
	 61 : 23

	Assuming in current code that numbering for constraints corresponds to unified fragment.
	Fixed dihedral atom list: 
	    17     4     2     5
	---Fragment 1 Geometry and Gradient---
	 C          -0.3600534691       -1.9513650268       -6.0211454578
	 O          -0.8797281557        4.8365312426        5.8179887647
	 C          -1.4712124353       -1.4071239005       -8.3549572319
	 C          -1.2482247516       -3.1324438598      -10.3353902192
	 C           0.0254506620       -5.4152330283      -10.0254751334
	 C           1.0553514044       -6.0407323783       -7.6935530854
	 C           0.8437020775       -4.3210815974       -5.7187892765
	 C           1.7507706213       -4.5251720198       -3.1223055700
	 C           3.1529474119       -6.4167878788       -1.9676829028
	 C           4.0543467773       -6.0048275818        0.4643946303
	 C           3.6008125054       -3.7163692349        1.6870474382
	 C           2.1589514660       -1.8323122804        0.5437631278
	 C           1.1384993542       -2.2688390171       -1.8372917996
	 C          -0.2920233283       -0.5813135804       -3.5512734021
	 C          -1.2387761209        1.7506084676       -3.0675035121
	 C          -2.7732337408        3.2491612909       -4.9931344415
	 C          -5.5908154050        3.0979832003       -4.3525172825
	 C          -1.7168768325        5.9514696610       -4.6510940115
	 C          -1.0970466610        6.0100511711       -1.8769760484
	 C          -0.9194124045        8.0944190957       -0.3255108933
	 C          -0.7077630776        7.7485992133        2.2747522656
	 C          -0.7493370525        5.3165216803        3.2781968421
	 C          -1.0422446031        6.9341272501        7.4941758446
	 C          -0.7852418490        3.1433366275        1.7229522348
	 C          -0.8929562386        3.5307304847       -0.9075465422
	 C          -1.0875980303        0.6318905969        2.9758406609
	 C          -3.2645625354       -0.7249327665        2.5582111855
	 C          -3.7313248902       -3.0209500180        3.8394455036
	 C          -1.9889973957       -3.9752617151        5.4891764176
	 C           0.2937917728       -2.6656815050        5.9578284986
	 C           2.1551720137       -3.6294418328        7.6548025659
	 C           4.3378056972       -2.3463177885        8.1083368378
	 C           4.7667735294        0.0120604253        6.9367066354
	 C           3.0206665826        0.9909385621        5.2964243520
	 C           0.7473260447       -0.3129724696        4.7351756906
	 H          -2.3745015268        0.1273337194       -8.5930627247
	 H          -1.9776590389       -2.7412705503      -11.9265396231
	 H           0.1879671094       -6.5452892558      -11.4106443888
	 H           1.8906103551       -7.6110947948       -7.4535578665
	 H           3.4912083897       -7.9588044032       -2.8199493887
	 H           4.9859817608       -7.2917310783        1.2996535810
	 H           4.2830036394       -3.4366897672        3.3216605432
	 H           1.8754925461       -0.2695087685        1.3809118047
	 H          -2.4482008460        2.6179927626       -6.7449105667
	 H          -0.9401993919        9.7498191881       -1.0209301102
	 H          -0.5339082734        9.1677835391        3.3594550658
	 H          -4.4758769866       -0.1069923211        1.3903604354
	 H          -5.2657825101       -3.9053418482        3.5503174053
	 H          -2.3121405644       -5.5305063224        6.3244353683
	 H           1.8641541893       -5.1960247969        8.4825026121
	 H           5.5717968620       -3.0360678270        9.2176060778
	 H           6.2747749834        0.9229084214        7.2863059700
	 H           3.3400302991        2.5764187876        4.5178571853
	 H          -6.5375681975        4.2450469630       -5.4542276179
	 H          -5.8515976113        3.5855325426       -2.5875130744
	 H          -6.1898585891        1.3632146103       -4.6095200365
	 H          -0.1899781172        6.2217004980       -5.6961125629
	 H          -3.0000008768        7.2421526097       -5.0895104743
	 H          -2.5011131777        7.9791458016        7.0349723943
	 H           0.5035513736        7.9451307312        7.3694539198
	 H          -1.2444452993        6.3237457091        9.2289444346
	             0.0103817895        0.0067034204       -0.0039289152
	            -0.0007039563        0.0052669403       -0.0001313325
	            -0.0686281103        0.1119567280       -0.0215029193
	            -0.0549995159        0.0279986101       -0.1185656825
	             0.0128063858       -0.0856317088       -0.1023118322
	             0.0618232371       -0.1198641530        0.0150880393
	             0.0007500859        0.0005635059       -0.0043989118
	             0.0010192008       -0.0026246183        0.0028068368
	             0.0286208762       -0.1149220847       -0.0606377873
	             0.0712492441       -0.0975551962        0.0591655209
	             0.0461168534        0.0242548913        0.1279475401
	            -0.0326049941        0.1148157329        0.0862939305
	            -0.0103601483       -0.0039282492        0.0088743535
	            -0.0064686399        0.0071937594       -0.0011108056
	             0.0023345317       -0.0057986882       -0.0019519975
	            -0.0051127243       -0.0252484136       -0.0658027142
	            -0.0963517776       -0.0031281399        0.0252462201
	             0.0176369913        0.0687641760       -0.0704674541
	             0.0000672714        0.0049011502       -0.0005176358
	            -0.0050378190        0.1248030609       -0.0492806022
	             0.0085546570        0.1050793812        0.0757221897
	             0.0009055372        0.0038230517       -0.0073171039
	            -0.0065469717        0.0678812726        0.0680158431
	             0.0011296688        0.0030488621       -0.0004921076
	             0.0085938852        0.0068438943       -0.0025262648
	             0.0190432516       -0.0134525855       -0.0183636231
	            -0.0916598844        0.0465646488       -0.0899591021
	            -0.1150003977       -0.0677610720       -0.0185629987
	            -0.0247059146       -0.1137710974        0.0612727664
	            -0.0029775190       -0.0060065548       -0.0095034069
	            -0.0073936894       -0.1138966197        0.0647397735
	             0.0831338636       -0.0573518883        0.0786585465
	             0.1108347421        0.0707668627        0.0236156930
	             0.0279583784        0.1143396093       -0.0600295280
	             0.0142282738       -0.0080177456       -0.0331709628
	             0.0687117107       -0.1113548668        0.0236987189
	             0.0580525684       -0.0317654948        0.1260350549
	            -0.0116444077        0.0892967214        0.1087457562
	            -0.0659366565        0.1234249548       -0.0189227783
	            -0.0280222865        0.1215615144        0.0677620319
	            -0.0746676403        0.1006791207       -0.0654936970
	            -0.0541448532       -0.0209097775       -0.1238629060
	            -0.0004470153       -0.0994996046       -0.0336215157
	            -0.0102702972        0.0189634595        0.0673627113
	             0.0035650737       -0.1302899899        0.0531265790
	            -0.0100470203       -0.1108936049       -0.0837266542
	             0.0963090364       -0.0497161521        0.0920647510
	             0.1209782450        0.0691998396        0.0239687011
	             0.0238285690        0.1225521466       -0.0669325330
	             0.0248835936        0.1238669872       -0.0631082535
	            -0.0957827693        0.0527896758       -0.0869527439
	            -0.1179390839       -0.0710847153       -0.0268665574
	            -0.0241959207       -0.1225575991        0.0616393867
	             0.0557370323       -0.0654727651        0.0632910955
	             0.0168276100       -0.0281811303       -0.1011250575
	             0.0349559098        0.0974764986        0.0136468746
	            -0.0769427196       -0.0117448273        0.0544944301
	             0.0620253663       -0.0653675253        0.0228491716
	             0.0842112828       -0.0608689537        0.0250206332
	            -0.0894492525       -0.0595731034        0.0051522412
	             0.0107630723        0.0428302357       -0.0951746960

	Previous optimization step data not found.  Starting new optimization.

	---Fragment 1 Intrafragment Coordinates---
	 - Coordinate -           - BOHR/RAD -       - ANG/DEG -
	 R(1,3)           =         2.641505	       1.397824
	 R(1,7)           =         2.675071	       1.415586
	 R(1,14)          =         2.825232	       1.495048
	 R(2,22)          =         2.588037	       1.369530
	 R(2,23)          =         2.689967	       1.423469
	 R(3,4)           =         2.636014	       1.394918
	 R(3,36)          =         1.796437	       0.950633
	 R(4,5)           =         2.632380	       1.392995
	 R(4,37)          =         1.793557	       0.949110
	 R(5,6)           =         2.624844	       1.389008
	 R(5,38)          =         1.795030	       0.949889
	 R(6,7)           =         2.627106	       1.390205
	 R(6,39)          =         1.794796	       0.949765
	 R(7,8)           =         2.757926	       1.459431
	 R(8,9)           =         2.622492	       1.387763
	 R(8,13)          =         2.667803	       1.411741
	 R(9,10)          =         2.626258	       1.389756
	 R(9,40)          =         1.794044	       0.949367
	 R(10,11)         =         2.633935	       1.393818
	 R(10,41)         =         1.794916	       0.949828
	 R(11,12)         =         2.633578	       1.393629
	 R(11,42)         =         1.793200	       0.948920
	 R(12,13)         =         2.627033	       1.390166
	 R(12,43)         =         1.795417	       0.950094
	 R(13,14)         =         2.798548	       1.480928
	 R(14,15)         =         2.562857	       1.356205
	 R(15,16)         =         2.882408	       1.525305
	 R(15,25)         =         2.820255	       1.492415
	 R(16,17)         =         2.893443	       1.531144
	 R(16,18)         =         2.921532	       1.546008
	 R(16,44)         =         1.890169	       1.000234
	 R(17,54)         =         1.850908	       0.979459
	 R(17,55)         =         1.849581	       0.978756
	 R(17,56)         =         1.853193	       0.980668
	 R(18,19)         =         2.843124	       1.504516
	 R(18,57)         =         1.869895	       0.989506
	 R(18,58)         =         1.872025	       0.990633
	 R(19,20)         =         2.604455	       1.378218
	 R(19,25)         =         2.669921	       1.412861
	 R(20,21)         =         2.631683	       1.392627
	 R(20,45)         =         1.795659	       0.950222
	 R(21,22)         =         2.631279	       1.392413
	 R(21,46)         =         1.794684	       0.949706
	 R(22,24)         =         2.672603	       1.414281
	 R(23,59)         =         1.852358	       0.980225
	 R(23,60)         =         1.851261	       0.979645
	 R(23,61)         =         1.850101	       0.979031
	 R(24,25)         =         2.661052	       1.408168
	 R(24,26)         =         2.822855	       1.493790
	 R(26,27)         =         2.598953	       1.375307
	 R(26,35)         =         2.712005	       1.435131
	 R(27,28)         =         2.670416	       1.413123
	 R(27,47)         =         1.792487	       0.948543
	 R(28,29)         =         2.582253	       1.366469
	 R(28,48)         =         1.794521	       0.949619
	 R(29,30)         =         2.673156	       1.414573
	 R(29,49)         =         1.794677	       0.949702
	 R(30,31)         =         2.696904	       1.427140
	 R(30,35)         =         2.689947	       1.423458
	 R(31,32)         =         2.572157	       1.361127
	 R(31,50)         =         1.795539	       0.950158
	 R(32,33)         =         2.668085	       1.411890
	 R(32,51)         =         1.796933	       0.950896
	 R(33,34)         =         2.587976	       1.369498
	 R(33,52)         =         1.796088	       0.950449
	 R(34,35)         =         2.680161	       1.418280
	 R(34,53)         =         1.794967	       0.949856
	 B(1,3,4)         =         2.086729	     119.560774
	 B(1,3,36)        =         2.099722	     120.305208
	 B(1,7,6)         =         2.130756	     122.083352
	 B(1,7,8)         =         1.896489	     108.660805
	 B(1,14,13)       =         1.828967	     104.792079
	 B(1,14,15)       =         2.211003	     126.681166
	 B(2,22,21)       =         2.148932	     123.124749
	 B(2,22,24)       =         2.003788	     114.808609
	 B(2,23,59)       =         1.910309	     109.452669
	 B(2,23,60)       =         1.910731	     109.476812
	 B(2,23,61)       =         1.910936	     109.488565
	 B(3,1,7)         =         2.061977	     118.142594
	 B(3,1,14)        =         2.322114	     133.047344
	 B(3,4,5)         =         2.117734	     121.337236
	 B(3,4,37)        =         2.082151	     119.298449
	 B(4,3,36)        =         2.096734	     120.134000
	 B(4,5,6)         =         2.095657	     120.072293
	 B(4,5,38)        =         2.093122	     119.927055
	 B(5,4,37)        =         2.083300	     119.364270
	 B(5,6,7)         =         2.071686	     118.698854
	 B(5,6,39)        =         2.105859	     120.656819
	 B(6,5,38)        =         2.094406	     120.000629
	 B(6,7,8)         =         2.255895	     129.253242
	 B(7,1,14)        =         1.896456	     108.658909
	 B(7,6,39)        =         2.105639	     120.644222
	 B(7,8,9)         =         2.270163	     130.070773
	 B(7,8,13)        =         1.891683	     108.385465
	 B(8,9,10)        =         2.069277	     118.560858
	 B(8,9,40)        =         2.107879	     120.772577
	 B(8,13,12)       =         2.080551	     119.206796
	 B(8,13,14)       =         1.909545	     109.408872
	 B(9,8,13)        =         2.118459	     121.378758
	 B(9,10,11)       =         2.102565	     120.468107
	 B(9,10,41)       =         2.090500	     119.776822
	 B(10,9,40)       =         2.106028	     120.666542
	 B(10,11,12)      =         2.111012	     120.952104
	 B(10,11,42)      =         2.086496	     119.547412
	 B(11,10,41)      =         2.090120	     119.755071
	 B(11,12,13)      =         2.079750	     119.160891
	 B(11,12,43)      =         2.102187	     120.446446
	 B(12,11,42)      =         2.085677	     119.500482
	 B(12,13,14)      =         2.282953	     130.803568
	 B(13,12,43)      =         2.101248	     120.392647
	 B(13,14,15)      =         2.241948	     128.454171
	 B(14,15,16)      =         2.145519	     122.929202
	 B(14,15,25)      =         2.309847	     132.344471
	 B(15,16,17)      =         1.921246	     110.079290
	 B(15,16,18)      =         1.782560	     102.133161
	 B(15,16,44)      =         1.932643	     110.732273
	 B(15,25,19)      =         1.874101	     107.378104
	 B(15,25,24)      =         2.305213	     132.078974
	 B(16,15,25)      =         1.822211	     104.405003
	 B(16,17,54)      =         1.911267	     109.507559
	 B(16,17,55)      =         1.912194	     109.560663
	 B(16,17,56)      =         1.910258	     109.449713
	 B(16,18,19)      =         1.784540	     102.246619
	 B(16,18,57)      =         1.942813	     111.314991
	 B(16,18,58)      =         1.941716	     111.252140
	 B(17,16,18)      =         1.954657	     111.993622
	 B(17,16,44)      =         1.933921	     110.805507
	 B(18,16,44)      =         1.933916	     110.805229
	 B(18,19,20)      =         2.230139	     127.777566
	 B(18,19,25)      =         1.930302	     110.598152
	 B(19,18,57)      =         1.943680	     111.364654
	 B(19,18,58)      =         1.943068	     111.329579
	 B(19,20,21)      =         2.081629	     119.268577
	 B(19,20,45)      =         2.101693	     120.418145
	 B(19,25,24)      =         2.091170	     119.815241
	 B(20,19,25)      =         2.119603	     121.444296
	 B(20,21,22)      =         2.090919	     119.800854
	 B(20,21,46)      =         2.095620	     120.070169
	 B(21,20,45)      =         2.099863	     120.313272
	 B(21,22,24)      =         2.129245	     121.996729
	 B(22,2,23)       =         2.060008	     118.029781
	 B(22,21,46)      =         2.096646	     120.128947
	 B(22,24,25)      =         2.045875	     117.219984
	 B(22,24,26)      =         2.056230	     117.813318
	 B(24,26,27)      =         2.074726	     118.873048
	 B(24,26,35)      =         2.124008	     121.696685
	 B(25,24,26)      =         2.169927	     124.327675
	 B(26,27,28)      =         2.115521	     121.210398
	 B(26,27,47)      =         2.083766	     119.391001
	 B(26,35,30)      =         2.077739	     119.045666
	 B(26,35,34)      =         2.141522	     122.700171
	 B(27,26,35)      =         2.081845	     119.280906
	 B(27,28,29)      =         2.101730	     120.420265
	 B(27,28,48)      =         2.089656	     119.728484
	 B(28,27,47)      =         2.083898	     119.398549
	 B(28,29,30)      =         2.102676	     120.474488
	 B(28,29,49)      =         2.089907	     119.742865
	 B(29,28,48)      =         2.091799	     119.851244
	 B(29,30,31)      =         2.123097	     121.644475
	 B(29,30,35)      =         2.086075	     119.523274
	 B(30,29,49)      =         2.090600	     119.782542
	 B(30,31,32)      =         2.115717	     121.221654
	 B(30,31,50)      =         2.082869	     119.339587
	 B(30,35,34)      =         2.063876	     118.251406
	 B(31,30,35)      =         2.073949	     118.828507
	 B(31,32,33)      =         2.094333	     119.996436
	 B(31,32,51)      =         2.094498	     120.005883
	 B(32,31,50)      =         2.084600	     119.438758
	 B(32,33,34)      =         2.099231	     120.277060
	 B(32,33,52)      =         2.091831	     119.853064
	 B(33,32,51)      =         2.094351	     119.997480
	 B(33,34,35)      =         2.118814	     121.399128
	 B(33,34,53)      =         2.081703	     119.272776
	 B(34,33,52)      =         2.092123	     119.869826
	 B(35,34,53)      =         2.082668	     119.328088
	 B(54,17,55)      =         1.909779	     109.422262
	 B(54,17,56)      =         1.909470	     109.404585
	 B(55,17,56)      =         1.910829	     109.482435
	 B(57,18,58)      =         1.906223	     109.218546
	 B(59,23,60)      =         1.910094	     109.440333
	 B(59,23,61)      =         1.909748	     109.420478
	 B(60,23,61)      =         1.911980	     109.548408
	 D(1,3,4,5)       =         0.019580	       1.121836
	 D(1,3,4,37)      =        -3.120654	    -178.800288
	 D(1,7,6,5)       =        -0.012439	      -0.712711
	 D(1,7,6,39)      =         3.127115	     179.170489
	 D(1,7,8,9)       =        -3.073870	    -176.119761
	 D(1,7,8,13)      =        -0.014553	      -0.833802
	 D(1,14,13,8)     =        -0.054787	      -3.139048
	 D(1,14,13,12)    =         2.929435	     167.844246
	 D(1,14,15,16)    =         0.104404	       5.981925
	 D(1,14,15,25)    =        -2.904808	    -166.433233
	 D(2,22,21,20)    =        -2.989798	    -171.302830
	 D(2,22,21,46)    =         0.152906	       8.760871
	 D(2,22,24,25)    =         3.041211	     174.248581
	 D(2,22,24,26)    =         0.052513	       3.008764
	 D(3,1,7,6)       =         0.056879	       3.258928
	 D(3,1,7,8)       =        -3.094072	    -177.277280
	 D(3,1,14,13)     =         3.105049	     177.906193
	 D(3,1,14,15)     =        -0.087121	      -4.991688
	 D(3,4,5,6)       =         0.026119	       1.496495
	 D(3,4,5,38)      =        -3.116444	    -178.559102
	 D(4,3,1,7)       =        -0.059284	      -3.396710
	 D(4,3,1,14)      =        -3.112791	    -178.349773
	 D(4,5,6,7)       =        -0.029290	      -1.678197
	 D(4,5,6,39)      =         3.114341	     178.438618
	 D(5,4,3,36)      =        -3.121169	    -178.829836
	 D(5,6,7,8)       =         3.140604	     179.943346
	 D(6,5,4,37)      =        -3.116834	    -178.581431
	 D(6,7,1,14)      =         3.130564	     179.368111
	 D(6,7,8,9)       =         0.057483	       3.293537
	 D(6,7,8,13)      =         3.116800	     178.579495
	 D(7,1,3,36)      =         3.081464	     176.554878
	 D(7,1,14,13)     =         0.045423	       2.602531
	 D(7,1,14,15)     =         3.136438	     179.704650
	 D(7,6,5,38)      =         3.113274	     178.377441
	 D(7,8,9,10)      =         2.999641	     171.866748
	 D(7,8,9,40)      =        -0.140998	      -8.078593
	 D(7,8,13,12)     =        -2.961160	    -169.661943
	 D(7,8,13,14)     =         0.044100	       2.526763
	 D(8,7,1,14)      =        -0.020387	      -1.168097
	 D(8,7,6,39)      =        -0.003027	      -0.173454
	 D(8,9,10,11)     =        -0.023966	      -1.373151
	 D(8,9,10,41)     =         3.117533	     178.621467
	 D(8,13,12,11)    =        -0.086659	      -4.965223
	 D(8,13,12,43)    =         3.055725	     175.080163
	 D(8,13,14,15)    =         3.138603	     179.828709
	 D(9,8,13,12)     =         0.106702	       6.113584
	 D(9,8,13,14)     =         3.111962	     178.302290
	 D(9,10,11,12)    =         0.042502	       2.435178
	 D(9,10,11,42)    =        -3.099360	    -177.580261
	 D(10,9,8,13)     =        -0.050476	      -2.892089
	 D(10,11,12,13)   =         0.014244	       0.816106
	 D(10,11,12,43)   =        -3.128142	    -179.229306
	 D(11,10,9,40)    =         3.116674	     178.572250
	 D(11,12,13,14)   =        -3.058086	    -175.215425
	 D(12,11,10,41)   =        -3.098997	    -177.559440
	 D(12,13,14,15)   =        -0.160361	      -9.187997
	 D(13,8,9,40)     =         3.092070	     177.162571
	 D(13,12,11,42)   =        -3.127080	    -179.168462
	 D(13,14,15,16)   =        -3.099648	    -177.596734
	 D(13,14,15,25)   =         0.174325	       9.988108
	 D(14,1,3,36)     =         0.027957	       1.601816
	 D(14,13,12,43)   =         0.084299	       4.829961
	 D(14,15,16,17)   =         1.784709	     102.256305
	 D(14,15,16,18)   =        -2.419674	    -138.637099
	 D(14,15,16,44)   =        -0.359770	     -20.613310
	 D(14,15,25,19)   =         2.597331	     148.816097
	 D(14,15,25,24)   =        -0.720555	     -41.284761
	 D(15,16,17,54)   =         3.008721	     172.387020
	 D(15,16,17,55)   =         0.914026	      52.369855
	 D(15,16,17,56)   =        -1.181335	     -67.685514
	 D(15,16,18,19)   =        -0.574994	     -32.944712
	 D(15,16,18,57)   =         1.501996	      86.058021
	 D(15,16,18,58)   =        -2.650759	    -151.877290
	 D(15,25,19,18)   =         0.052771	       3.023569
	 D(15,25,19,20)   =         3.115537	     178.507111
	 D(15,25,24,22)   =        -3.006752	    -172.274177
	 D(15,25,24,26)   =        -0.029006	      -1.661906
	 D(16,15,25,19)   =        -0.429626	     -24.615781
	 D(16,15,25,24)   =         2.535673	     145.283361
	 D(16,18,19,20)   =        -2.719806	    -155.833425
	 D(16,18,19,25)   =         0.336686	      19.290700
	 D(17,16,15,25)   =        -1.457779	     -83.524595
	 D(17,16,18,19)   =         1.480068	      84.801676
	 D(17,16,18,57)   =        -2.726127	    -156.195592
	 D(17,16,18,58)   =        -0.595697	     -34.130902
	 D(18,16,15,25)   =         0.621023	      35.582001
	 D(18,16,17,54)   =         1.038389	      59.495326
	 D(18,16,17,55)   =        -1.056305	     -60.521840
	 D(18,16,17,56)   =         3.131518	     179.422791
	 D(18,19,20,21)   =         2.970326	     170.187170
	 D(18,19,20,45)   =        -0.171768	      -9.841583
	 D(18,19,25,24)   =        -2.938222	    -168.347703
	 D(19,18,16,44)   =        -2.633989	    -150.916460
	 D(19,20,21,22)   =        -0.031297	      -1.793159
	 D(19,20,21,46)   =         3.109185	     178.143178
	 D(19,25,24,22)   =        -0.059287	      -3.396899
	 D(19,25,24,26)   =         2.918459	     167.215372
	 D(20,19,18,57)   =         1.487001	      85.198868
	 D(20,19,18,58)   =        -0.644995	     -36.955502
	 D(20,19,25,24)   =         0.124544	       7.135839
	 D(20,21,22,24)   =         0.095948	       5.497394
	 D(21,20,19,25)   =        -0.077872	      -4.461715
	 D(21,22,2,23)    =         0.027660	       1.584778
	 D(21,22,24,25)   =        -0.048860	      -2.799445
	 D(21,22,24,26)   =        -3.037558	    -174.039262
	 D(22,2,23,59)    =         0.978388	      56.057513
	 D(22,2,23,60)    =        -1.115208	     -63.896731
	 D(22,2,23,61)    =         3.071686	     175.994634
	 D(22,21,20,45)   =         3.110797	     178.235563
	 D(22,24,26,27)   =         1.974098	     113.107502
	 D(22,24,26,35)   =        -1.089378	     -62.416787
	 D(23,2,22,24)    =        -3.061759	    -175.425867
	 D(24,22,21,46)   =        -3.044533	    -174.438905
	 D(24,26,27,28)   =        -3.059031	    -175.269586
	 D(24,26,27,47)   =         0.081096	       4.646484
	 D(24,26,35,30)   =         3.089969	     177.042210
	 D(24,26,35,34)   =        -0.062358	      -3.572879
	 D(25,15,16,44)   =         2.680927	     153.605790
	 D(25,19,18,57)   =        -1.739692	     -99.677007
	 D(25,19,18,58)   =         2.411497	     138.168623
	 D(25,19,20,45)   =         3.063219	     175.509532
	 D(25,24,26,27)   =        -1.002753	     -57.453525
	 D(25,24,26,35)   =         2.216955	     127.022186
	 D(26,27,28,29)   =        -0.026198	      -1.501011
	 D(26,27,28,48)   =         3.115894	     178.527596
	 D(26,35,30,29)   =        -0.040780	      -2.336496
	 D(26,35,30,31)   =         3.112896	     178.355779
	 D(26,35,34,33)   =        -3.112670	    -178.342851
	 D(26,35,34,53)   =         0.028348	       1.624199
	 D(27,26,35,30)   =         0.026803	       1.535708
	 D(27,26,35,34)   =        -3.125525	    -179.079380
	 D(27,28,29,30)   =         0.011663	       0.668245
	 D(27,28,29,49)   =        -3.127878	    -179.214230
	 D(28,27,26,35)   =         0.006365	       0.364682
	 D(28,29,30,31)   =        -3.132250	    -179.464711
	 D(28,29,30,35)   =         0.021776	       1.247689
	 D(29,28,27,47)   =         3.116860	     178.582926
	 D(29,30,31,32)   =        -3.132830	    -179.497931
	 D(29,30,31,50)   =         0.008879	       0.508739
	 D(29,30,35,34)   =         3.111069	     178.251100
	 D(30,29,28,48)   =        -3.130429	    -179.360397
	 D(30,31,32,33)   =         0.026250	       1.503990
	 D(30,31,32,51)   =        -3.118189	    -178.659096
	 D(30,35,34,33)   =         0.018268	       1.046702
	 D(30,35,34,53)   =        -3.123899	    -178.986248
	 D(31,30,29,49)   =         0.007291	       0.417717
	 D(31,30,35,34)   =        -0.018442	      -1.056624
	 D(31,32,33,34)   =        -0.026664	      -1.527742
	 D(31,32,33,52)   =         3.116362	     178.554381
	 D(32,31,30,35)   =        -0.003587	      -0.205523
	 D(32,33,34,35)   =         0.004037	       0.231281
	 D(32,33,34,53)   =        -3.136981	    -179.735787
	 D(33,32,31,50)   =        -3.115460	    -178.502687
	 D(34,33,32,51)   =         3.117775	     178.635331
	 D(35,26,27,47)   =        -3.136693	    -179.719248
	 D(35,30,29,49)   =        -3.121868	    -178.869883
	 D(35,30,31,50)   =         3.138122	     179.801146
	 D(35,34,33,52)   =        -3.138990	    -179.850856
	 D(36,3,4,37)     =         0.021782	       1.248039
	 D(37,4,5,38)     =         0.023788	       1.362972
	 D(38,5,6,39)     =        -0.026280	      -1.505744
	 D(40,9,10,41)    =        -0.025013	      -1.433133
	 D(41,10,11,42)   =         0.042326	       2.425121
	 D(42,11,12,43)   =         0.013720	       0.786126
	 D(44,16,17,54)   =        -1.130736	     -64.786383
	 D(44,16,17,55)   =         3.057755	     175.196452
	 D(44,16,17,56)   =         0.962393	      55.141083
	 D(44,16,18,57)   =        -0.557000	     -31.913728
	 D(44,16,18,58)   =         1.573431	      90.150961
	 D(45,20,21,46)   =        -0.031906	      -1.828100
	 D(47,27,28,48)   =        -0.024233	      -1.388468
	 D(48,28,29,49)   =         0.013214	       0.757129
	 D(50,31,32,51)   =         0.023287	       1.334227
	 D(51,32,33,52)   =        -0.022385	      -1.282546
	 D(52,33,34,53)   =         0.003178	       0.182076
	 R(2,34)          =         5.502153	       2.911614
	 R(2,35)          =         5.507920	       2.914666
	 R(3,16)          =         5.888812	       3.116225
	 R(11,26)         =         6.523001	       3.451824
	 R(11,29)         =         6.765293	       3.580039
	 R(11,30)         =         5.502718	       2.911913
	 R(11,31)         =         6.140972	       3.249662
	 R(11,32)         =         6.607054	       3.496302
	 R(11,33)         =         6.543667	       3.462759
	 R(11,34)         =         5.960111	       3.153955
	 R(11,35)         =         5.386704	       2.850521
	 R(12,24)         =         5.900495	       3.122408
	 R(12,25)         =         6.338980	       3.354444
	 R(12,26)         =         4.746302	       2.511635
	 R(12,27)         =         5.890568	       3.117154
	 R(12,28)         =         6.853447	       3.626688
	 R(12,29)         =         6.801090	       3.598982
	 R(12,30)         =         5.786660	       3.062168
	 R(12,33)         =         7.146480	       3.781754
	 R(12,34)         =         5.594737	       2.960608
	 R(12,35)         =         4.676432	       2.474661
	 R(13,24)         =         6.757793	       3.576070
	 R(13,26)         =         6.044500	       3.198612
	 R(13,27)         =         6.410230	       3.392148
	 R(13,35)         =         6.868461	       3.634633
	 R(14,26)         =         6.686406	       3.538294
	 R(14,27)         =         6.795765	       3.596164
	 R(15,27)         =         6.471536	       3.424589
	 R(22,34)         =         6.082503	       3.218722
	 D(5,2,4,17)      =         2.681706	     153.650450

	Current energy   :     -1386.0959481920

	Generating empirical Hessian (Schlegel '84) for each fragment.
	Adding user-defined constraint: Fragment 1; Coordinate 387:
		Value =     2.681706; Fixed value    =     0.174533
		Force =    -1.253587; Force constant =     0.500000
	Removing off-diagonal coupling between coordinate 387 and others.
	Taking RFO optimization step.
	Going to follow RFO solution 1.
	Using RFO vector 1.

	Determining step-restricting scale parameter for RS-RFO.
	Maximum step size allowed    0.10000

	 Iter      |step|        alpha        rfo_root  
	------------------------------------------------
	    0     0.85486       1.00000           1
	    1     0.52083       3.04760           1
	    2     0.32437       8.44258           1
	    3     0.21091      20.81413           1
	    4     0.14751      43.54773           1
	    5     0.11512      72.35457           1
	    6     0.10246      91.75648           1
	    7     0.10009      96.24563           1
	    8     0.10000      96.41353           1
	------------------------------------------------
	Norm of target step-size    0.10000
	Projected energy change by RFO approximation:        -0.0982769323

	Back-transformation to cartesian coordinates...
	Successfully converged to displaced geometry.

	--- Internal Coordinate Step in ANG or DEG, aJ/ANG or AJ/DEG ---
	 ---------------------------------------------------------------------------
	   Coordinate                Previous        Force       Change         New 
	   ----------                --------       ------       ------       ------
	    1 R(1,3)          =      1.397824     0.152536     0.000945     1.398769
	    2 R(1,7)          =      1.415586    -0.013894    -0.000092     1.415495
	    3 R(1,14)         =      1.495048     0.230784     0.001436     1.496485
	    4 R(2,22)         =      1.369530    -0.301156    -0.001897     1.367634
	    5 R(2,23)         =      1.423469     0.046515     0.000300     1.423769
	    6 R(3,4)          =      1.394918    -0.177343    -0.001104     1.393815
	    7 R(3,36)         =      0.950633     1.094146     0.006951     0.957584
	    8 R(4,5)          =      1.392995     0.094702     0.000630     1.393625
	    9 R(4,37)         =      0.949110     1.172773     0.007448     0.956557
	   10 R(5,6)          =      1.389008     0.218567     0.001402     1.390410
	   11 R(5,38)         =      0.949889     1.163202     0.007388     0.957277
	   12 R(6,7)          =      1.390205     0.149075     0.000933     1.391138
	   13 R(6,39)         =      0.949765     1.163374     0.007389     0.957154
	   14 R(7,8)          =      1.459431     0.138664     0.000910     1.460342
	   15 R(8,9)          =      1.387763     0.061599     0.000395     1.388158
	   16 R(8,13)         =      1.411741     0.083472     0.000514     1.412255
	   17 R(9,10)         =      1.389756     0.146204     0.000946     1.390702
	   18 R(9,40)         =      0.949367     1.169558     0.007428     0.956795
	   19 R(10,11)        =      1.393818     0.099321     0.000644     1.394463
	   20 R(10,41)        =      0.949828     1.165099     0.007400     0.957228
	   21 R(11,12)        =      1.393629     0.087827     0.000558     1.394188
	   22 R(11,42)        =      0.948920     1.126800     0.007155     0.956076
	   23 R(12,13)        =      1.390166    -0.142262    -0.000910     1.389256
	   24 R(12,43)        =      0.950094     0.842117     0.005349     0.955443
	   25 R(13,14)        =      1.480928    -0.110598    -0.000755     1.480173
	   26 R(14,15)        =      1.356205    -0.145953    -0.000955     1.355250
	   27 R(15,16)        =      1.525305    -0.370768    -0.002405     1.522900
	   28 R(15,25)        =      1.492415    -0.259706    -0.001674     1.490741
	   29 R(16,17)        =      1.531144     0.900419     0.005796     1.536940
	   30 R(16,18)        =      1.546008     0.025500     0.000173     1.546181
	   31 R(16,44)        =      1.000234     0.581076     0.003728     1.003962
	   32 R(17,54)        =      0.979459     0.879545     0.005621     0.985080
	   33 R(17,55)        =      0.978756     0.875783     0.005596     0.984353
	   34 R(17,56)        =      0.980668     0.860462     0.005500     0.986168
	   35 R(18,19)        =      1.504516     0.048955     0.000334     1.504851
	   36 R(18,57)        =      0.989506     0.782522     0.005010     0.994516
	   37 R(18,58)        =      0.990633     0.765647     0.004903     0.995537
	   38 R(19,20)        =      1.378218    -0.008929    -0.000049     1.378169
	   39 R(19,25)        =      1.412861     0.130856     0.000839     1.413701
	   40 R(20,21)        =      1.392627    -0.078854    -0.000487     1.392140
	   41 R(20,45)        =      0.950222     1.159426     0.007365     0.957586
	   42 R(21,22)        =      1.392413    -0.033815    -0.000205     1.392208
	   43 R(21,46)        =      0.949706     1.147391     0.007287     0.956993
	   44 R(22,24)        =      1.414281     0.058935     0.000378     1.414658
	   45 R(23,59)        =      0.980225     0.880441     0.005628     0.985853
	   46 R(23,60)        =      0.979645     0.886232     0.005664     0.985309
	   47 R(23,61)        =      0.979031     0.861343     0.005504     0.984535
	   48 R(24,25)        =      1.408168    -0.220733    -0.001400     1.406768
	   49 R(24,26)        =      1.493790    -0.171507    -0.001111     1.492680
	   50 R(26,27)        =      1.375307     0.083155     0.000517     1.375824
	   51 R(26,35)        =      1.435131    -0.213998    -0.001375     1.433756
	   52 R(27,28)        =      1.413123    -0.003779    -0.000024     1.413100
	   53 R(27,47)        =      0.948543     1.171585     0.007439     0.955982
	   54 R(28,29)        =      1.366469     0.009582     0.000067     1.366536
[...]
      94A     -0.375225    95A     -0.367014    96A     -0.362624  
      97A     -0.358070    98A     -0.354094    99A     -0.345832  
     100A     -0.342191   101A     -0.337651   102A     -0.334941  
     103A     -0.332452   104A     -0.327217   105A     -0.321186  
     106A     -0.319215   107A     -0.313915   108A     -0.309494  
     109A     -0.299345   110A     -0.289225   111A     -0.265320  
     112A     -0.264399   113A     -0.251527   114A     -0.235572  
     115A     -0.229354   116A     -0.216697   117A     -0.201957  
     118A     -0.194858   119A     -0.189216  

    Virtual:                                                              

     120A     -0.053752   121A     -0.033574   122A     -0.009183  
     123A     -0.001589   124A      0.002943   125A      0.019108  
     126A      0.024509   127A      0.043415   128A      0.058866  
     129A      0.089798   130A      0.103243   131A      0.108354  
     132A      0.110671   133A      0.113534   134A      0.119511  
     135A      0.127323   136A      0.135647   137A      0.138924  
     138A      0.144221   139A      0.147253   140A      0.150835  
     141A      0.160748   142A      0.165202   143A      0.168830  
     144A      0.170740   145A      0.176436   146A      0.178752  
     147A      0.180684   148A      0.184943   149A      0.188772  
     150A      0.191109   151A      0.196139   152A      0.197897  
     153A      0.203362   154A      0.205762   155A      0.212591  
     156A      0.214742   157A      0.220387   158A      0.226676  
     159A      0.234021   160A      0.238579   161A      0.243384  
     162A      0.245509   163A      0.260881   164A      0.264958  
     165A      0.268377   166A      0.271014   167A      0.273340  
     168A      0.278640   169A      0.283484   170A      0.289284  
     171A      0.300161   172A      0.303200   173A      0.309169  
     174A      0.315507   175A      0.321692   176A      0.326981  
     177A      0.332011   178A      0.338655   179A      0.342979  
     180A      0.346626   181A      0.352678   182A      0.371396  
     183A      0.381691   184A      0.392754   185A      0.402004  
     186A      0.405419   187A      0.408364   188A      0.417978  
     189A      0.429497   190A      0.456802   191A      0.459829  
     192A      0.470231   193A      0.482356   194A      0.485130  
     195A      0.498221   196A      0.500687   197A      0.503393  
     198A      0.514150   199A      0.515259   200A      0.520886  
     201A      0.524071   202A      0.526946   203A      0.534707  
     204A      0.541302   205A      0.542648   206A      0.547080  
     207A      0.553005   208A      0.553245   209A      0.559828  
     210A      0.562189   211A      0.564352   212A      0.567979  
     213A      0.570816   214A      0.575481   215A      0.579434  
     216A      0.580251   217A      0.583314   218A      0.587698  
     219A      0.594834   220A      0.599476   221A      0.600312  
     222A      0.603050   223A      0.607363   224A      0.609571  
     225A      0.614420   226A      0.617630   227A      0.619677  
     228A      0.622293   229A      0.624663   230A      0.625441  
     231A      0.629080   232A      0.633810   233A      0.636014  
     234A      0.640637   235A      0.643128   236A      0.643769  
     237A      0.646153   238A      0.654089   239A      0.659070  
     240A      0.662291   241A      0.667385   242A      0.674575  
     243A      0.678319   244A      0.684792   245A      0.687969  
     246A      0.697833   247A      0.699172   248A      0.703012  
     249A      0.705948   250A      0.711034   251A      0.726169  
     252A      0.738340   253A      0.746103   254A      0.750967  
     255A      0.761589   256A      0.774121   257A      0.775790  
     258A      0.793238   259A      0.806594   260A      0.809818  
     261A      0.819808   262A      0.828538   263A      0.831622  
     264A      0.839994   265A      0.844480   266A      0.848103  
     267A      0.856410   268A      0.857679   269A      0.864527  
     270A      0.870296   271A      0.877065   272A      0.880932  
     273A      0.883890   274A      0.885011   275A      0.886480  
     276A      0.893111   277A      0.896475   278A      0.899527  
     279A      0.902534   280A      0.906192   281A      0.908075  
     282A      0.915386   283A      0.919870   284A      0.921904  
     285A      0.927854   286A      0.931524   287A      0.935938  
     288A      0.942682   289A      0.949737   290A      0.951321  
     291A      0.956352   292A      0.962040   293A      0.967339  
     294A      0.972839   295A      0.973487   296A      0.977328  
     297A      0.982261   298A      0.988430   299A      0.994821  
     300A      1.001425   301A      1.003346   302A      1.015891  
     303A      1.023004   304A      1.024516   305A      1.027913  
     306A      1.035044   307A      1.047032   308A      1.054115  
     309A      1.060249   310A      1.069934   311A      1.074997  
     312A      1.079244   313A      1.086099   314A      1.091000  
     315A      1.094193   316A      1.112304   317A      1.113706  
     318A      1.125713   319A      1.137935   320A      1.141941  
     321A      1.148830   322A      1.160668   323A      1.173268  
     324A      1.176158   325A      1.181429   326A      1.187885  
     327A      1.196092   328A      1.200142   329A      1.214022  
     330A      1.233768   331A      1.238506   332A      1.241466  
     333A      1.246258   334A      1.248299   335A      1.261312  
     336A      1.272772   337A      1.275306   338A      1.285900  
     339A      1.295028   340A      1.303067   341A      1.305454  
     342A      1.313171   343A      1.323673   344A      1.337769  
     345A      1.348299   346A      1.350369   347A      1.378371  
     348A      1.382537   349A      1.388629   350A      1.398528  
     351A      1.406478   352A      1.412985   353A      1.423007  
     354A      1.439936   355A      1.451830   356A      1.462080  
     357A      1.466897   358A      1.471392   359A      1.475280  
     360A      1.477559   361A      1.487287   362A      1.492656  
     363A      1.499291   364A      1.502746   365A      1.508126  
     366A      1.512881   367A      1.516417   368A      1.521474  
     369A      1.524044   370A      1.538585   371A      1.545226  
     372A      1.554610   373A      1.558465   374A      1.558873  
     375A      1.570796   376A      1.584433   377A      1.593828  
     378A      1.599315   379A      1.610166   380A      1.620178  
     381A      1.649182   382A      1.658744   383A      1.672021  
     384A      1.687313   385A      1.703844   386A      1.711793  
     387A      1.727303   388A      1.741488   389A      1.752864  
     390A      1.759578   391A      1.775699   392A      1.783255  
     393A      1.787016   394A      1.801010   395A      1.809414  
     396A      1.812476   397A      1.817706   398A      1.825762  
     399A      1.841297   400A      1.846509   401A      1.853943  
     402A      1.863051   403A      1.870915   404A      1.877667  
     405A      1.885767   406A      1.896612   407A      1.901019  
     408A      1.913548   409A      1.925363   410A      1.926943  
     411A      1.946205   412A      1.952878   413A      1.958689  
     414A      1.970084   415A      1.975563   416A      1.987801  
     417A      1.995247   418A      1.999838   419A      2.000805  
     420A      2.009085   421A      2.013433   422A      2.019878  
     423A      2.027326   424A      2.037009   425A      2.044175  
     426A      2.045258   427A      2.048998   428A      2.053746  
     429A      2.061590   430A      2.067659   431A      2.079013  
     432A      2.080634   433A      2.085814   434A      2.098727  
     435A      2.103800   436A      2.106394   437A      2.113227  
     438A      2.121268   439A      2.128023   440A      2.141848  
     441A      2.153980   442A      2.162346   443A      2.164444  
     444A      2.175213   445A      2.186538   446A      2.193016  
     447A      2.199012   448A      2.207181   449A      2.211908  
     450A      2.222817   451A      2.225257   452A      2.232838  
     453A      2.242692   454A      2.243297   455A      2.252709  
     456A      2.259545   457A      2.262517   458A      2.267167  
     459A      2.275700   460A      2.286326   461A      2.294889  
     462A      2.304045   463A      2.311074   464A      2.314288  
     465A      2.316349   466A      2.331731   467A      2.333741  
     468A      2.341388   469A      2.345597   470A      2.352782  
     471A      2.359331   472A      2.371229   473A      2.380541  
     474A      2.395427   475A      2.395943   476A      2.405417  
     477A      2.414595   478A      2.419344   479A      2.439258  
     480A      2.448794   481A      2.462708   482A      2.478744  
     483A      2.481071   484A      2.491461   485A      2.538795  
     486A      2.551229   487A      2.554904   488A      2.566308  
     489A      2.578567   490A      2.584269   491A      2.615003  
     492A      2.623467   493A      2.627957   494A      2.635050  
     495A      2.656804   496A      2.670068   497A      2.672089  
     498A      2.673876   499A      2.681006   500A      2.685267  
     501A      2.692273   502A      2.700672   503A      2.703796  
     504A      2.711618   505A      2.715089   506A      2.722249  
     507A      2.741507   508A      2.742374   509A      2.752016  
     510A      2.765146   511A      2.769969   512A      2.786965  
     513A      2.794228   514A      2.803463   515A      2.805558  
     516A      2.823613   517A      2.833668   518A      2.856680  
     519A      2.869382   520A      2.885985   521A      2.890686  
     522A      2.899115   523A      2.905066   524A      2.942654  
     525A      2.947738   526A      2.956048   527A      2.978345  
     528A      2.982876   529A      3.013825   530A      3.041111  
     531A      3.060129   532A      3.082976   533A      3.173858  
     534A      3.199389   535A      3.246281   536A      3.310116  
     537A      3.374681   538A      3.421825   539A      3.440859  
     540A      3.483783   541A      3.548244   542A      3.581264  
     543A      4.087684   544A      4.095046   545A      4.106446  
     546A      4.114947   547A      4.125553   548A      4.140907  
     549A      4.144064   550A      4.176598   551A      4.189538  
     552A      4.212113   553A      4.220405   554A      4.232075  
     555A      4.239115   556A      4.251743   557A      4.260439  
     558A      4.275327   559A      4.312099   560A      4.350543  
     561A      4.357724   562A      4.381213   563A      4.397042  
     564A      4.418583   565A      4.434683   566A      4.468538  
     567A      4.477534   568A      4.494960   569A      4.547127  
     570A      4.577715   571A      4.606186   572A      4.689314  
     573A      4.712480   574A      4.820763   575A      4.859186  
     576A      4.876405   577A      4.938368  

    Final Occupation by Irrep:
              A 
    DOCC [   119 ]

  Energy converged.

  @DF-RKS Final Energy: -1386.34987781370774

   => Energetics <=

    Nuclear Repulsion Energy =           3642.9603548533659705
    One-Electron Energy =               -9126.0010455566934979
    Two-Electron Energy =                4261.4785749930360907
    DFT Exchange-Correlation Energy =    -164.7877621034160995
    Empirical Dispersion Energy =           0.0000000000000000
    PCM Polarization Energy =               0.0000000000000000
    EFP Energy =                            0.0000000000000000
    Total Energy =                      -1386.3498778137075078



Properties will be evaluated at   0.000000,   0.000000,   0.000000 Bohr

Properties computed using the SCF density matrix

  Nuclear Dipole Moment: (a.u.)
     X:    -4.9991      Y:     8.0852      Z:     0.3120

  Electronic Dipole Moment: (a.u.)
     X:     4.7115      Y:    -7.0195      Z:     0.3884

  Dipole Moment: (a.u.)
     X:    -0.2875      Y:     1.0658      Z:     0.7005     Total:     1.3074

  Dipole Moment: (Debye)
     X:    -0.7308      Y:     2.7089      Z:     1.7804     Total:     3.3230


*** tstop() called on warthog at Mon Nov 20 16:20:30 2017
Module time:
	user time   =    1250.52 seconds =      20.84 minutes
	system time =       8.39 seconds =       0.14 minutes
	total time  =       1259 seconds =      20.98 minutes
Total time:
	user time   =   21818.42 seconds =     363.64 minutes
	system time =     172.09 seconds =       2.87 minutes
	total time  =      22090 seconds =     368.17 minutes

*** tstart() called on warthog
*** at Mon Nov 20 16:20:30 2017


         ------------------------------------------------------------
                                   SCF GRAD                          
                          Rob Parrish, Justin Turney,                
                       Andy Simmonett, and Alex Sokolov              
         ------------------------------------------------------------

  ==> Geometry <==

    Molecular point group: c1
    Full point group: C1

    Geometry (in Angstrom), charge = 0, multiplicity = 1:

       Center              X                  Y                   Z               Mass       
    ------------   -----------------  -----------------  -----------------  -----------------
           C          0.079044401690    -0.842505541861    -3.249590107728    12.000000000000
           O         -0.215775424698     2.586792006203     3.099746498649    15.994914619560
           C         -0.109415349072    -0.320367493288    -4.544853954623    12.000000000000
           C          0.015118714685    -1.114505081713    -5.670177595303    12.000000000000
           C          0.133115362673    -2.504260723914    -5.511500499786    12.000000000000
           C          0.347787696829    -3.057233247184    -4.232283644286    12.000000000000
           C          0.353926605367    -2.216393242338    -3.110283676497    12.000000000000
           C          0.639166178824    -2.482432662711    -1.683707499673    12.000000000000
           C          1.098005350916    -3.631858360947    -1.046018948279    12.000000000000
           C          1.494121480751    -3.538925743537     0.298011879657    12.000000000000
           C          1.447400723742    -2.313932347425     0.981973271136    12.000000000000
           C          0.934280175399    -1.180476526612     0.346261027862    12.000000000000
           C          0.491937781241    -1.271922503419    -0.958621672305    12.000000000000
           C         -0.010070773616    -0.241803213064    -1.870771439953    12.000000000000
           C         -0.405087331562     1.008122826132    -1.596661572602    12.000000000000
           C         -1.147728041250     1.831339587498    -2.591012914129    12.000000000000
           C         -2.676507208235     1.603018100114    -2.195057591658    12.000000000000
           C         -0.522569430213     3.235549960644    -2.409100672879    12.000000000000
           C         -0.195489647725     3.213303523606    -0.935002870157    12.000000000000
           C         -0.019236182430     4.299797746134    -0.107480649935    12.000000000000
           C          0.061785751547     4.093823964050     1.263900796394    12.000000000000
           C         -0.106022690989     2.808985804488     1.773104063591    12.000000000000
           C         -0.189327276467     3.710546877888     3.976494126215    12.000000000000
           C         -0.239194174619     1.668993732274     0.940417636219    12.000000000000
           C         -0.215536806086     1.883186506927    -0.433024246591    12.000000000000
           C         -0.615271486757     0.378579403955     1.565568954653    12.000000000000
           C         -1.853103364232    -0.146474359662     1.249720622851    12.000000000000
           C         -2.349977314335    -1.306308253276     1.882574605618    12.000000000000
           C         -1.587412804393    -1.956599534765     2.811166495521    12.000000000000
           C         -0.297599302206    -1.465257477050     3.144978020757    12.000000000000
           C          0.526058733445    -2.138276515323     4.091680929791    12.000000000000
           C          1.768289000332    -1.658879317463     4.407251994725    12.000000000000
           C          2.235324664717    -0.461534093348     3.816298224140    12.000000000000
           C          1.460510419234     0.213414331844     2.902725597123    12.000000000000
           C          0.189044867625    -0.269896822085     2.534718779641    12.000000000000
           H         -0.310582339953     0.667679499599    -4.669535990631     1.007825032070
           H         -0.099510282181    -0.707518220931    -6.597884122440     1.007825032070
           H          0.172565351914    -3.105034222344    -6.334841342899     1.007825032070
           H          0.515258120396    -4.057623959243    -4.125819896049     1.007825032070
           H          1.166089189418    -4.517134151824    -1.547641820517     1.007825032070
           H          1.826792241777    -4.372507033471     0.782745619362     1.007825032070
           H          1.775945957222    -2.256914469685     1.941903479452     1.007825032070
           H          0.903023686279    -0.299842760065     0.818568306508     1.007825032070
           H         -0.988762900930     1.519586169110    -3.566573106040     1.007825032070
           H          0.058429915241     5.240744992072    -0.493918040574     1.007825032070
           H          0.229362453130     4.878888869059     1.890573490759     1.007825032070
           H         -2.425525608175     0.320427147908     0.548079973809     1.007825032070
           H         -3.278712452100    -1.655357494741     1.646958336398     1.007825032070
           H         -1.939908134258    -2.801447681910     3.260987060976     1.007825032070
           H          0.184095712528    -2.991432812396     4.534586640576     1.007825032070
           H          2.357409890549    -2.163509810577     5.070143628952     1.007825032070
           H          3.153206028394    -0.095861784536     4.070296726884     1.007825032070
           H          1.811897135806     1.072573475744     2.482583052521     1.007825032070
           H         -3.280230557930     2.225890026772    -2.761096383009     1.007825032070
           H         -2.812565655391     1.814971388138    -1.191849737019     1.007825032070
           H         -2.934195763009     0.617024374836    -2.377119992735     1.007825032070
           H          0.320597557684     3.331453758196    -3.010839756259     1.007825032070
           H         -1.183363457906     4.009482987673    -2.626243308974     1.007825032070
           H         -0.934319772364     4.380507666654     3.711456733942     1.007825032070
           H          0.732681818028     4.179993665699     3.920271885332     1.007825032070
           H         -0.351074985736     3.376228002308     4.941178042979     1.007825032070

  Nuclear repulsion = 3642.960354853365970

  ==> Basis Set <==

  Basis Set: 6-31G*
    Blend: 6-31G*
    Number of shells: 262
    Number of basis function: 577
    Number of Cartesian functions: 577
    Spherical Harmonics?: false
    Max angular momentum: 2

  ==> DFJKGrad: Density-Fitted SCF Gradients <==

    Gradient:                    1
    J tasked:                  Yes
    K tasked:                  Yes
    wK tasked:                  No
    OpenMP threads:              1
    Integrals threads:           1
    Memory (MB):              5722
    Schwarz Cutoff:          0E+00
    Fitting Condition:       1E-12

   => Auxiliary Basis Set <=

  Basis Set: (6-31G* AUX)
    Blend: CC-PVDZ-JKFIT
    Number of shells: 1074
    Number of basis function: 3485
    Number of Cartesian functions: 3485
    Spherical Harmonics?: false
    Max angular momentum: 3

