
Host: warthog

Timers On : Sun Nov 19 10:42:56 2017
Timers Off: Sun Nov 19 10:42:58 2017

Wall Time:        2.00 seconds


***********************************************************

Host: warthog

Timers On : Sun Nov 19 10:44:03 2017
Timers Off: Sun Nov 19 10:44:03 2017

Wall Time:        0.00 seconds


***********************************************************

Host: warthog

Timers On : Sun Nov 19 10:44:46 2017
Timers Off: Sun Nov 19 10:44:47 2017

Wall Time:        1.00 seconds


***********************************************************

Host: warthog

Timers On : Sun Nov 19 10:45:00 2017
Timers Off: Sun Nov 19 10:45:01 2017

Wall Time:        1.00 seconds


***********************************************************

Host: warthog

Timers On : Sun Nov 19 10:45:09 2017
Timers Off: Sun Nov 19 10:45:10 2017

Wall Time:        1.00 seconds


***********************************************************

Host: warthog

Timers On : Sun Nov 19 10:45:19 2017
Timers Off: Sun Nov 19 10:45:20 2017

Wall Time:        1.00 seconds


***********************************************************

Host: warthog

Timers On : Sun Nov 19 10:47:54 2017
Timers Off: Sun Nov 19 10:47:55 2017

Wall Time:        1.00 seconds


***********************************************************

Host: warthog

Timers On : Sun Nov 19 10:48:30 2017
Timers Off: Sun Nov 19 10:48:31 2017

Wall Time:        1.00 seconds


***********************************************************
